n -t 0 -s 0 -S DLABEL -l "sk1.eth0" -L ""
n -t 0 -s 1 -S DLABEL -l "sk2.eth0" -L ""
n -t 0 -s 2 -S DLABEL -l "sk3.eth0" -L ""
n -t 0 -s 3 -S DLABEL -l "sk4.eth0" -L ""
n -t 0 -s 4 -S DLABEL -l "sk5.eth0" -L ""
n -t 0 -s 5 -S DLABEL -l "sk6.eth0" -L ""
n -t 0 -s 6 -S DLABEL -l "sk7.eth0" -L ""
n -t 0 -s 7 -S DLABEL -l "sk8.eth0" -L ""
n -t 0 -s 8 -S DLABEL -l "sk9.eth0" -L ""
n -t 0 -s 9 -S DLABEL -l "sk10.eth0" -L ""
n -t * -s 0  -x 0 -y 0 -Z 0 -z 20  -v circle -c black
n -t * -s 1  -x 70 -y 0 -Z 0 -z 20  -v circle -c black
n -t * -s 2  -x 140 -y 0 -Z 0 -z 20  -v circle -c black
n -t * -s 3  -x 210 -y 0 -Z 0 -z 20  -v circle -c black
n -t * -s 4  -x 0 -y 70 -Z 0 -z 20  -v circle -c black
n -t * -s 5  -x 70 -y 70 -Z 0 -z 20  -v circle -c black
n -t * -s 6  -x 140 -y 70 -Z 0 -z 20  -v circle -c black
n -t * -s 7  -x 210 -y 70 -Z 0 -z 20  -v circle -c black
n -t * -s 8  -x 0 -y 140 -Z 0 -z 20  -v circle -c black
n -t * -s 9  -x 70 -y 140 -Z 0 -z 20  -v circle -c black
V -t * -v 1.0a5 -a 0
W -t * -x 120 -y 120
A -t * -n 1 -p 0 -o 0xffffffff -c 31 -a 1
A -t * -h 1 -m 2147483647 -s 0
+ -t 0.024170000 -s 6 -d 0 -p raw -e 166 -c 2 -a 0 -i 0 -k MAC 
- -t 0.024170000 -s 6 -d 0 -p raw -e 166 -c 2 -a 0 -i 0 -k MAC
h -t 0.024170000 -s 6 -d 0 -p raw -e 166 -c 2 -a 0 -i 0 -k MAC
r -t 0.025498000 -s 6 -d 0 -p raw -e 166 -c 2 -a 0 -i 0 -k MAC
r -t 0.025498233 -s 2 -d 0 -p raw -e 108 -c 2 -a 0 -i 0 -k MAC
r -t 0.025498233 -s 5 -d 0 -p raw -e 108 -c 2 -a 0 -i 0 -k MAC
r -t 0.025498233 -s 7 -d 0 -p raw -e 108 -c 2 -a 0 -i 0 -k MAC
r -t 0.025498330 -s 3 -d 0 -p raw -e 108 -c 2 -a 0 -i 0 -k MAC
+ -t 0.028150000 -s 5 -d 0 -p raw -e 166 -c 2 -a 0 -i 0 -k MAC 
- -t 0.028150000 -s 5 -d 0 -p raw -e 166 -c 2 -a 0 -i 0 -k MAC
h -t 0.028150000 -s 5 -d 0 -p raw -e 166 -c 2 -a 0 -i 0 -k MAC
r -t 0.029478000 -s 5 -d 0 -p raw -e 166 -c 2 -a 0 -i 0 -k MAC
r -t 0.029478233 -s 1 -d 0 -p raw -e 108 -c 2 -a 0 -i 0 -k MAC
r -t 0.029478233 -s 4 -d 0 -p raw -e 108 -c 2 -a 0 -i 0 -k MAC
r -t 0.029478233 -s 9 -d 0 -p raw -e 108 -c 2 -a 0 -i 0 -k MAC
r -t 0.029478233 -s 6 -d 0 -p raw -e 108 -c 2 -a 0 -i 0 -k MAC
r -t 0.029478330 -s 8 -d 0 -p raw -e 108 -c 2 -a 0 -i 0 -k MAC
+ -t 0.068150000 -s 0 -d 0 -p raw -e 166 -c 2 -a 0 -i 0 -k MAC 
- -t 0.068150000 -s 0 -d 0 -p raw -e 166 -c 2 -a 0 -i 0 -k MAC
h -t 0.068150000 -s 0 -d 0 -p raw -e 166 -c 2 -a 0 -i 0 -k MAC
r -t 0.069478000 -s 0 -d 0 -p raw -e 166 -c 2 -a 0 -i 0 -k MAC
r -t 0.069478233 -s 4 -d 0 -p raw -e 108 -c 2 -a 0 -i 0 -k MAC
r -t 0.069478233 -s 1 -d 0 -p raw -e 108 -c 2 -a 0 -i 0 -k MAC
+ -t 0.081090000 -s 8 -d 0 -p raw -e 166 -c 2 -a 0 -i 0 -k MAC 
- -t 0.081090000 -s 8 -d 0 -p raw -e 166 -c 2 -a 0 -i 0 -k MAC
h -t 0.081090000 -s 8 -d 0 -p raw -e 166 -c 2 -a 0 -i 0 -k MAC
r -t 0.082418000 -s 8 -d 0 -p raw -e 166 -c 2 -a 0 -i 0 -k MAC
r -t 0.082418233 -s 4 -d 0 -p raw -e 108 -c 2 -a 0 -i 0 -k MAC
r -t 0.082418233 -s 9 -d 0 -p raw -e 108 -c 2 -a 0 -i 0 -k MAC
r -t 0.082418330 -s 5 -d 0 -p raw -e 108 -c 2 -a 0 -i 0 -k MAC
+ -t 0.097170000 -s 9 -d 0 -p raw -e 166 -c 2 -a 0 -i 0 -k MAC 
- -t 0.097170000 -s 9 -d 0 -p raw -e 166 -c 2 -a 0 -i 0 -k MAC
h -t 0.097170000 -s 9 -d 0 -p raw -e 166 -c 2 -a 0 -i 0 -k MAC
r -t 0.098498000 -s 9 -d 0 -p raw -e 166 -c 2 -a 0 -i 0 -k MAC
r -t 0.098498233 -s 5 -d 0 -p raw -e 108 -c 2 -a 0 -i 0 -k MAC
r -t 0.098498233 -s 8 -d 0 -p raw -e 108 -c 2 -a 0 -i 0 -k MAC
+ -t 0.151170000 -s 4 -d 0 -p raw -e 166 -c 2 -a 0 -i 0 -k MAC 
- -t 0.151170000 -s 4 -d 0 -p raw -e 166 -c 2 -a 0 -i 0 -k MAC
h -t 0.151170000 -s 4 -d 0 -p raw -e 166 -c 2 -a 0 -i 0 -k MAC
r -t 0.152498000 -s 4 -d 0 -p raw -e 166 -c 2 -a 0 -i 0 -k MAC
r -t 0.152498233 -s 0 -d 0 -p raw -e 108 -c 2 -a 0 -i 0 -k MAC
r -t 0.152498233 -s 5 -d 0 -p raw -e 108 -c 2 -a 0 -i 0 -k MAC
r -t 0.152498330 -s 1 -d 0 -p raw -e 108 -c 2 -a 0 -i 0 -k MAC
+ -t 0.180170000 -s 2 -d 0 -p raw -e 166 -c 2 -a 0 -i 0 -k MAC 
- -t 0.180170000 -s 2 -d 0 -p raw -e 166 -c 2 -a 0 -i 0 -k MAC
h -t 0.180170000 -s 2 -d 0 -p raw -e 166 -c 2 -a 0 -i 0 -k MAC
r -t 0.181498000 -s 2 -d 0 -p raw -e 166 -c 2 -a 0 -i 0 -k MAC
r -t 0.181498233 -s 3 -d 0 -p raw -e 108 -c 2 -a 0 -i 0 -k MAC
+ -t 0.318170000 -s 1 -d 0 -p raw -e 166 -c 2 -a 0 -i 0 -k MAC 
- -t 0.318170000 -s 1 -d 0 -p raw -e 166 -c 2 -a 0 -i 0 -k MAC
h -t 0.318170000 -s 1 -d 0 -p raw -e 166 -c 2 -a 0 -i 0 -k MAC
r -t 0.319498000 -s 1 -d 0 -p raw -e 166 -c 2 -a 0 -i 0 -k MAC
r -t 0.319498233 -s 0 -d 0 -p raw -e 108 -c 2 -a 0 -i 0 -k MAC
r -t 0.319498233 -s 2 -d 0 -p raw -e 108 -c 2 -a 0 -i 0 -k MAC
+ -t 0.343150000 -s 3 -d 0 -p raw -e 166 -c 2 -a 0 -i 0 -k MAC 
- -t 0.343150000 -s 3 -d 0 -p raw -e 166 -c 2 -a 0 -i 0 -k MAC
h -t 0.343150000 -s 3 -d 0 -p raw -e 166 -c 2 -a 0 -i 0 -k MAC
r -t 0.344478000 -s 3 -d 0 -p raw -e 166 -c 2 -a 0 -i 0 -k MAC
r -t 0.344478233 -s 2 -d 0 -p raw -e 108 -c 2 -a 0 -i 0 -k MAC
r -t 0.344478233 -s 7 -d 0 -p raw -e 108 -c 2 -a 0 -i 0 -k MAC
+ -t 0.375150000 -s 7 -d 0 -p raw -e 166 -c 2 -a 0 -i 0 -k MAC 
- -t 0.375150000 -s 7 -d 0 -p raw -e 166 -c 2 -a 0 -i 0 -k MAC
h -t 0.375150000 -s 7 -d 0 -p raw -e 166 -c 2 -a 0 -i 0 -k MAC
r -t 0.376478000 -s 7 -d 0 -p raw -e 166 -c 2 -a 0 -i 0 -k MAC
r -t 0.376478233 -s 3 -d 0 -p raw -e 108 -c 2 -a 0 -i 0 -k MAC
r -t 0.376478330 -s 2 -d 0 -p raw -e 108 -c 2 -a 0 -i 0 -k MAC
+ -t 1.983170000 -s 6 -d 0 -p raw -e 166 -c 2 -a 0 -i 0 -k MAC 
- -t 1.983170000 -s 6 -d 0 -p raw -e 166 -c 2 -a 0 -i 0 -k MAC
h -t 1.983170000 -s 6 -d 0 -p raw -e 166 -c 2 -a 0 -i 0 -k MAC
r -t 1.984498000 -s 6 -d 0 -p raw -e 166 -c 2 -a 0 -i 0 -k MAC
r -t 1.984498233 -s 2 -d 0 -p raw -e 108 -c 2 -a 0 -i 0 -k MAC
r -t 1.984498233 -s 5 -d 0 -p raw -e 108 -c 2 -a 0 -i 0 -k MAC
r -t 1.984498233 -s 7 -d 0 -p raw -e 108 -c 2 -a 0 -i 0 -k MAC
r -t 1.984498330 -s 1 -d 0 -p raw -e 108 -c 2 -a 0 -i 0 -k MAC
+ -t 2.020090000 -s 5 -d 0 -p raw -e 166 -c 2 -a 0 -i 0 -k MAC 
- -t 2.020090000 -s 5 -d 0 -p raw -e 166 -c 2 -a 0 -i 0 -k MAC
h -t 2.020090000 -s 5 -d 0 -p raw -e 166 -c 2 -a 0 -i 0 -k MAC
r -t 2.021418000 -s 5 -d 0 -p raw -e 166 -c 2 -a 0 -i 0 -k MAC
r -t 2.021418233 -s 1 -d 0 -p raw -e 108 -c 2 -a 0 -i 0 -k MAC
r -t 2.021418233 -s 4 -d 0 -p raw -e 108 -c 2 -a 0 -i 0 -k MAC
r -t 2.021418233 -s 6 -d 0 -p raw -e 108 -c 2 -a 0 -i 0 -k MAC
r -t 2.021418330 -s 8 -d 0 -p raw -e 108 -c 2 -a 0 -i 0 -k MAC
r -t 2.021418330 -s 0 -d 0 -p raw -e 108 -c 2 -a 0 -i 0 -k MAC
+ -t 2.055130000 -s 8 -d 0 -p raw -e 166 -c 2 -a 0 -i 0 -k MAC 
- -t 2.055130000 -s 8 -d 0 -p raw -e 166 -c 2 -a 0 -i 0 -k MAC
h -t 2.055130000 -s 8 -d 0 -p raw -e 166 -c 2 -a 0 -i 0 -k MAC
r -t 2.056458000 -s 8 -d 0 -p raw -e 166 -c 2 -a 0 -i 0 -k MAC
r -t 2.056458233 -s 4 -d 0 -p raw -e 108 -c 2 -a 0 -i 0 -k MAC
r -t 2.056458233 -s 9 -d 0 -p raw -e 108 -c 2 -a 0 -i 0 -k MAC
+ -t 2.127150000 -s 2 -d 0 -p raw -e 166 -c 2 -a 0 -i 0 -k MAC 
- -t 2.127150000 -s 2 -d 0 -p raw -e 166 -c 2 -a 0 -i 0 -k MAC
h -t 2.127150000 -s 2 -d 0 -p raw -e 166 -c 2 -a 0 -i 0 -k MAC
r -t 2.128478000 -s 2 -d 0 -p raw -e 166 -c 2 -a 0 -i 0 -k MAC
r -t 2.128478233 -s 6 -d 0 -p raw -e 108 -c 2 -a 0 -i 0 -k MAC
r -t 2.128478233 -s 3 -d 0 -p raw -e 108 -c 2 -a 0 -i 0 -k MAC
r -t 2.128478330 -s 5 -d 0 -p raw -e 108 -c 2 -a 0 -i 0 -k MAC
+ -t 2.191130000 -s 0 -d 0 -p raw -e 166 -c 2 -a 0 -i 0 -k MAC 
- -t 2.191130000 -s 0 -d 0 -p raw -e 166 -c 2 -a 0 -i 0 -k MAC
h -t 2.191130000 -s 0 -d 0 -p raw -e 166 -c 2 -a 0 -i 0 -k MAC
r -t 2.192458000 -s 0 -d 0 -p raw -e 166 -c 2 -a 0 -i 0 -k MAC
r -t 2.192458233 -s 1 -d 0 -p raw -e 108 -c 2 -a 0 -i 0 -k MAC
+ -t 2.238090000 -s 1 -d 0 -p raw -e 166 -c 2 -a 0 -i 0 -k MAC 
- -t 2.238090000 -s 1 -d 0 -p raw -e 166 -c 2 -a 0 -i 0 -k MAC
h -t 2.238090000 -s 1 -d 0 -p raw -e 166 -c 2 -a 0 -i 0 -k MAC
r -t 2.239418000 -s 1 -d 0 -p raw -e 166 -c 2 -a 0 -i 0 -k MAC
r -t 2.239418233 -s 0 -d 0 -p raw -e 108 -c 2 -a 0 -i 0 -k MAC
r -t 2.239418233 -s 5 -d 0 -p raw -e 108 -c 2 -a 0 -i 0 -k MAC
r -t 2.239418233 -s 2 -d 0 -p raw -e 108 -c 2 -a 0 -i 0 -k MAC
r -t 2.239418330 -s 4 -d 0 -p raw -e 108 -c 2 -a 0 -i 0 -k MAC
+ -t 2.266050000 -s 9 -d 0 -p raw -e 166 -c 2 -a 0 -i 0 -k MAC 
- -t 2.266050000 -s 9 -d 0 -p raw -e 166 -c 2 -a 0 -i 0 -k MAC
h -t 2.266050000 -s 9 -d 0 -p raw -e 166 -c 2 -a 0 -i 0 -k MAC
r -t 2.267378000 -s 9 -d 0 -p raw -e 166 -c 2 -a 0 -i 0 -k MAC
r -t 2.267378233 -s 5 -d 0 -p raw -e 108 -c 2 -a 0 -i 0 -k MAC
r -t 2.267378233 -s 8 -d 0 -p raw -e 108 -c 2 -a 0 -i 0 -k MAC
r -t 2.267378330 -s 6 -d 0 -p raw -e 108 -c 2 -a 0 -i 0 -k MAC
+ -t 2.338110000 -s 4 -d 0 -p raw -e 166 -c 2 -a 0 -i 0 -k MAC 
- -t 2.338110000 -s 4 -d 0 -p raw -e 166 -c 2 -a 0 -i 0 -k MAC
h -t 2.338110000 -s 4 -d 0 -p raw -e 166 -c 2 -a 0 -i 0 -k MAC
r -t 2.339438000 -s 4 -d 0 -p raw -e 166 -c 2 -a 0 -i 0 -k MAC
r -t 2.339438233 -s 8 -d 0 -p raw -e 108 -c 2 -a 0 -i 0 -k MAC
r -t 2.339438233 -s 5 -d 0 -p raw -e 108 -c 2 -a 0 -i 0 -k MAC
r -t 2.339438330 -s 9 -d 0 -p raw -e 108 -c 2 -a 0 -i 0 -k MAC
+ -t 2.394050000 -s 3 -d 0 -p raw -e 166 -c 2 -a 0 -i 0 -k MAC 
- -t 2.394050000 -s 3 -d 0 -p raw -e 166 -c 2 -a 0 -i 0 -k MAC
h -t 2.394050000 -s 3 -d 0 -p raw -e 166 -c 2 -a 0 -i 0 -k MAC
r -t 2.395378000 -s 3 -d 0 -p raw -e 166 -c 2 -a 0 -i 0 -k MAC
r -t 2.395378233 -s 2 -d 0 -p raw -e 108 -c 2 -a 0 -i 0 -k MAC
r -t 2.395378233 -s 7 -d 0 -p raw -e 108 -c 2 -a 0 -i 0 -k MAC
r -t 2.395378330 -s 6 -d 0 -p raw -e 108 -c 2 -a 0 -i 0 -k MAC
+ -t 2.521050000 -s 7 -d 0 -p raw -e 166 -c 2 -a 0 -i 0 -k MAC 
- -t 2.521050000 -s 7 -d 0 -p raw -e 166 -c 2 -a 0 -i 0 -k MAC
h -t 2.521050000 -s 7 -d 0 -p raw -e 166 -c 2 -a 0 -i 0 -k MAC
r -t 2.522378000 -s 7 -d 0 -p raw -e 166 -c 2 -a 0 -i 0 -k MAC
r -t 2.522378233 -s 3 -d 0 -p raw -e 108 -c 2 -a 0 -i 0 -k MAC
r -t 2.522378233 -s 6 -d 0 -p raw -e 108 -c 2 -a 0 -i 0 -k MAC
+ -t 3.894170000 -s 0 -d 0 -p raw -e 166 -c 2 -a 0 -i 0 -k MAC 
- -t 3.894170000 -s 0 -d 0 -p raw -e 166 -c 2 -a 0 -i 0 -k MAC
h -t 3.894170000 -s 0 -d 0 -p raw -e 166 -c 2 -a 0 -i 0 -k MAC
r -t 3.895498000 -s 0 -d 0 -p raw -e 166 -c 2 -a 0 -i 0 -k MAC
r -t 3.895498233 -s 4 -d 0 -p raw -e 108 -c 2 -a 0 -i 0 -k MAC
r -t 3.895498233 -s 1 -d 0 -p raw -e 108 -c 2 -a 0 -i 0 -k MAC
r -t 3.895498330 -s 5 -d 0 -p raw -e 108 -c 2 -a 0 -i 0 -k MAC
+ -t 3.931090000 -s 9 -d 0 -p raw -e 166 -c 2 -a 0 -i 0 -k MAC 
- -t 3.931090000 -s 9 -d 0 -p raw -e 166 -c 2 -a 0 -i 0 -k MAC
h -t 3.931090000 -s 9 -d 0 -p raw -e 166 -c 2 -a 0 -i 0 -k MAC
r -t 3.932418000 -s 9 -d 0 -p raw -e 166 -c 2 -a 0 -i 0 -k MAC
r -t 3.932418330 -s 4 -d 0 -p raw -e 108 -c 2 -a 0 -i 0 -k MAC
+ -t 3.989070000 -s 6 -d 0 -p raw -e 166 -c 2 -a 0 -i 0 -k MAC 
- -t 3.989070000 -s 6 -d 0 -p raw -e 166 -c 2 -a 0 -i 0 -k MAC
h -t 3.989070000 -s 6 -d 0 -p raw -e 166 -c 2 -a 0 -i 0 -k MAC
r -t 3.990398000 -s 6 -d 0 -p raw -e 166 -c 2 -a 0 -i 0 -k MAC
r -t 3.990398233 -s 2 -d 0 -p raw -e 108 -c 2 -a 0 -i 0 -k MAC
r -t 3.990398233 -s 5 -d 0 -p raw -e 108 -c 2 -a 0 -i 0 -k MAC
r -t 3.990398233 -s 7 -d 0 -p raw -e 108 -c 2 -a 0 -i 0 -k MAC
r -t 3.990398330 -s 3 -d 0 -p raw -e 108 -c 2 -a 0 -i 0 -k MAC
+ -t 4.101090000 -s 8 -d 0 -p raw -e 166 -c 2 -a 0 -i 0 -k MAC 
- -t 4.101090000 -s 8 -d 0 -p raw -e 166 -c 2 -a 0 -i 0 -k MAC
h -t 4.101090000 -s 8 -d 0 -p raw -e 166 -c 2 -a 0 -i 0 -k MAC
r -t 4.102418000 -s 8 -d 0 -p raw -e 166 -c 2 -a 0 -i 0 -k MAC
r -t 4.102418233 -s 4 -d 0 -p raw -e 108 -c 2 -a 0 -i 0 -k MAC
r -t 4.102418233 -s 9 -d 0 -p raw -e 108 -c 2 -a 0 -i 0 -k MAC
+ -t 4.108110000 -s 5 -d 0 -p raw -e 166 -c 2 -a 0 -i 0 -k MAC 
- -t 4.108110000 -s 5 -d 0 -p raw -e 166 -c 2 -a 0 -i 0 -k MAC
h -t 4.108110000 -s 5 -d 0 -p raw -e 166 -c 2 -a 0 -i 0 -k MAC
r -t 4.109438000 -s 5 -d 0 -p raw -e 166 -c 2 -a 0 -i 0 -k MAC
r -t 4.109438233 -s 4 -d 0 -p raw -e 108 -c 2 -a 0 -i 0 -k MAC
r -t 4.109438233 -s 9 -d 0 -p raw -e 108 -c 2 -a 0 -i 0 -k MAC
r -t 4.109438233 -s 6 -d 0 -p raw -e 108 -c 2 -a 0 -i 0 -k MAC
+ -t 4.183130000 -s 7 -d 0 -p raw -e 166 -c 2 -a 0 -i 0 -k MAC 
- -t 4.183130000 -s 7 -d 0 -p raw -e 166 -c 2 -a 0 -i 0 -k MAC
h -t 4.183130000 -s 7 -d 0 -p raw -e 166 -c 2 -a 0 -i 0 -k MAC
r -t 4.184458000 -s 7 -d 0 -p raw -e 166 -c 2 -a 0 -i 0 -k MAC
r -t 4.184458233 -s 3 -d 0 -p raw -e 108 -c 2 -a 0 -i 0 -k MAC
r -t 4.184458233 -s 6 -d 0 -p raw -e 108 -c 2 -a 0 -i 0 -k MAC
+ -t 4.260090000 -s 4 -d 0 -p raw -e 166 -c 2 -a 0 -i 0 -k MAC 
- -t 4.260090000 -s 4 -d 0 -p raw -e 166 -c 2 -a 0 -i 0 -k MAC
h -t 4.260090000 -s 4 -d 0 -p raw -e 166 -c 2 -a 0 -i 0 -k MAC
r -t 4.261418000 -s 4 -d 0 -p raw -e 166 -c 2 -a 0 -i 0 -k MAC
r -t 4.261418233 -s 5 -d 0 -p raw -e 108 -c 2 -a 0 -i 0 -k MAC
r -t 4.261418330 -s 9 -d 0 -p raw -e 108 -c 2 -a 0 -i 0 -k MAC
+ -t 4.312090000 -s 2 -d 0 -p raw -e 166 -c 2 -a 0 -i 0 -k MAC 
- -t 4.312090000 -s 2 -d 0 -p raw -e 166 -c 2 -a 0 -i 0 -k MAC
h -t 4.312090000 -s 2 -d 0 -p raw -e 166 -c 2 -a 0 -i 0 -k MAC
r -t 4.313418000 -s 2 -d 0 -p raw -e 166 -c 2 -a 0 -i 0 -k MAC
r -t 4.313418233 -s 1 -d 0 -p raw -e 108 -c 2 -a 0 -i 0 -k MAC
r -t 4.313418233 -s 6 -d 0 -p raw -e 108 -c 2 -a 0 -i 0 -k MAC
r -t 4.313418467 -s 0 -d 0 -p raw -e 108 -c 2 -a 0 -i 0 -k MAC
+ -t 4.406150000 -s 3 -d 0 -p raw -e 166 -c 2 -a 0 -i 0 -k MAC 
- -t 4.406150000 -s 3 -d 0 -p raw -e 166 -c 2 -a 0 -i 0 -k MAC
h -t 4.406150000 -s 3 -d 0 -p raw -e 166 -c 2 -a 0 -i 0 -k MAC
r -t 4.407478000 -s 3 -d 0 -p raw -e 166 -c 2 -a 0 -i 0 -k MAC
r -t 4.407478233 -s 2 -d 0 -p raw -e 108 -c 2 -a 0 -i 0 -k MAC
r -t 4.407478330 -s 6 -d 0 -p raw -e 108 -c 2 -a 0 -i 0 -k MAC
+ -t 4.436070000 -s 1 -d 0 -p raw -e 166 -c 2 -a 0 -i 0 -k MAC 
- -t 4.436070000 -s 1 -d 0 -p raw -e 166 -c 2 -a 0 -i 0 -k MAC
h -t 4.436070000 -s 1 -d 0 -p raw -e 166 -c 2 -a 0 -i 0 -k MAC
r -t 4.437398000 -s 1 -d 0 -p raw -e 166 -c 2 -a 0 -i 0 -k MAC
r -t 4.437398233 -s 5 -d 0 -p raw -e 108 -c 2 -a 0 -i 0 -k MAC
r -t 4.437398233 -s 2 -d 0 -p raw -e 108 -c 2 -a 0 -i 0 -k MAC
+ -t 5.893130000 -s 0 -d 0 -p raw -e 166 -c 2 -a 0 -i 0 -k MAC 
- -t 5.893130000 -s 0 -d 0 -p raw -e 166 -c 2 -a 0 -i 0 -k MAC
h -t 5.893130000 -s 0 -d 0 -p raw -e 166 -c 2 -a 0 -i 0 -k MAC
r -t 5.894458000 -s 0 -d 0 -p raw -e 166 -c 2 -a 0 -i 0 -k MAC
r -t 5.894458233 -s 4 -d 0 -p raw -e 108 -c 2 -a 0 -i 0 -k MAC
r -t 5.894458330 -s 5 -d 0 -p raw -e 108 -c 2 -a 0 -i 0 -k MAC
+ -t 5.948150000 -s 6 -d 0 -p raw -e 166 -c 2 -a 0 -i 0 -k MAC 
- -t 5.948150000 -s 6 -d 0 -p raw -e 166 -c 2 -a 0 -i 0 -k MAC
h -t 5.948150000 -s 6 -d 0 -p raw -e 166 -c 2 -a 0 -i 0 -k MAC
r -t 5.949478000 -s 6 -d 0 -p raw -e 166 -c 2 -a 0 -i 0 -k MAC
r -t 5.949478233 -s 2 -d 0 -p raw -e 108 -c 2 -a 0 -i 0 -k MAC
r -t 5.949478233 -s 5 -d 0 -p raw -e 108 -c 2 -a 0 -i 0 -k MAC
r -t 5.949478233 -s 7 -d 0 -p raw -e 108 -c 2 -a 0 -i 0 -k MAC
r -t 5.949478330 -s 3 -d 0 -p raw -e 108 -c 2 -a 0 -i 0 -k MAC
+ -t 6.009130000 -s 5 -d 0 -p raw -e 166 -c 2 -a 0 -i 0 -k MAC 
- -t 6.009130000 -s 5 -d 0 -p raw -e 166 -c 2 -a 0 -i 0 -k MAC
h -t 6.009130000 -s 5 -d 0 -p raw -e 166 -c 2 -a 0 -i 0 -k MAC
r -t 6.010458000 -s 5 -d 0 -p raw -e 166 -c 2 -a 0 -i 0 -k MAC
r -t 6.010458233 -s 1 -d 0 -p raw -e 108 -c 2 -a 0 -i 0 -k MAC
r -t 6.010458233 -s 4 -d 0 -p raw -e 108 -c 2 -a 0 -i 0 -k MAC
r -t 6.010458233 -s 9 -d 0 -p raw -e 108 -c 2 -a 0 -i 0 -k MAC
r -t 6.010458233 -s 6 -d 0 -p raw -e 108 -c 2 -a 0 -i 0 -k MAC
r -t 6.010458330 -s 8 -d 0 -p raw -e 108 -c 2 -a 0 -i 0 -k MAC
+ -t 6.060090000 -s 8 -d 0 -p raw -e 166 -c 2 -a 0 -i 0 -k MAC 
- -t 6.060090000 -s 8 -d 0 -p raw -e 166 -c 2 -a 0 -i 0 -k MAC
h -t 6.060090000 -s 8 -d 0 -p raw -e 166 -c 2 -a 0 -i 0 -k MAC
r -t 6.061418000 -s 8 -d 0 -p raw -e 166 -c 2 -a 0 -i 0 -k MAC
r -t 6.061418233 -s 4 -d 0 -p raw -e 108 -c 2 -a 0 -i 0 -k MAC
r -t 6.061418233 -s 9 -d 0 -p raw -e 108 -c 2 -a 0 -i 0 -k MAC
+ -t 6.155050000 -s 9 -d 0 -p raw -e 166 -c 2 -a 0 -i 0 -k MAC 
- -t 6.155050000 -s 9 -d 0 -p raw -e 166 -c 2 -a 0 -i 0 -k MAC
h -t 6.155050000 -s 9 -d 0 -p raw -e 166 -c 2 -a 0 -i 0 -k MAC
r -t 6.156378000 -s 9 -d 0 -p raw -e 166 -c 2 -a 0 -i 0 -k MAC
r -t 6.156378233 -s 5 -d 0 -p raw -e 108 -c 2 -a 0 -i 0 -k MAC
r -t 6.156378233 -s 8 -d 0 -p raw -e 108 -c 2 -a 0 -i 0 -k MAC
r -t 6.156378330 -s 4 -d 0 -p raw -e 108 -c 2 -a 0 -i 0 -k MAC
r -t 6.156378467 -s 1 -d 0 -p raw -e 108 -c 2 -a 0 -i 0 -k MAC
+ -t 6.202170000 -s 4 -d 0 -p raw -e 166 -c 2 -a 0 -i 0 -k MAC 
- -t 6.202170000 -s 4 -d 0 -p raw -e 166 -c 2 -a 0 -i 0 -k MAC
h -t 6.202170000 -s 4 -d 0 -p raw -e 166 -c 2 -a 0 -i 0 -k MAC
r -t 6.203498000 -s 4 -d 0 -p raw -e 166 -c 2 -a 0 -i 0 -k MAC
r -t 6.203498233 -s 0 -d 0 -p raw -e 108 -c 2 -a 0 -i 0 -k MAC
r -t 6.203498233 -s 8 -d 0 -p raw -e 108 -c 2 -a 0 -i 0 -k MAC
r -t 6.203498233 -s 5 -d 0 -p raw -e 108 -c 2 -a 0 -i 0 -k MAC
r -t 6.203498330 -s 1 -d 0 -p raw -e 108 -c 2 -a 0 -i 0 -k MAC
+ -t 6.332130000 -s 2 -d 0 -p raw -e 166 -c 2 -a 0 -i 0 -k MAC 
- -t 6.332130000 -s 2 -d 0 -p raw -e 166 -c 2 -a 0 -i 0 -k MAC
h -t 6.332130000 -s 2 -d 0 -p raw -e 166 -c 2 -a 0 -i 0 -k MAC
r -t 6.333458000 -s 2 -d 0 -p raw -e 166 -c 2 -a 0 -i 0 -k MAC
r -t 6.333458233 -s 1 -d 0 -p raw -e 108 -c 2 -a 0 -i 0 -k MAC
r -t 6.333458233 -s 6 -d 0 -p raw -e 108 -c 2 -a 0 -i 0 -k MAC
r -t 6.333458330 -s 5 -d 0 -p raw -e 108 -c 2 -a 0 -i 0 -k MAC
r -t 6.333458330 -s 7 -d 0 -p raw -e 108 -c 2 -a 0 -i 0 -k MAC
+ -t 6.370170000 -s 1 -d 0 -p raw -e 166 -c 2 -a 0 -i 0 -k MAC 
- -t 6.370170000 -s 1 -d 0 -p raw -e 166 -c 2 -a 0 -i 0 -k MAC
h -t 6.370170000 -s 1 -d 0 -p raw -e 166 -c 2 -a 0 -i 0 -k MAC
r -t 6.371498000 -s 1 -d 0 -p raw -e 166 -c 2 -a 0 -i 0 -k MAC
r -t 6.371498233 -s 0 -d 0 -p raw -e 108 -c 2 -a 0 -i 0 -k MAC
r -t 6.371498233 -s 5 -d 0 -p raw -e 108 -c 2 -a 0 -i 0 -k MAC
r -t 6.371498233 -s 2 -d 0 -p raw -e 108 -c 2 -a 0 -i 0 -k MAC
r -t 6.371498330 -s 4 -d 0 -p raw -e 108 -c 2 -a 0 -i 0 -k MAC
r -t 6.371498330 -s 6 -d 0 -p raw -e 108 -c 2 -a 0 -i 0 -k MAC
+ -t 6.378170000 -s 3 -d 0 -p raw -e 166 -c 2 -a 0 -i 0 -k MAC 
- -t 6.378170000 -s 3 -d 0 -p raw -e 166 -c 2 -a 0 -i 0 -k MAC
h -t 6.378170000 -s 3 -d 0 -p raw -e 166 -c 2 -a 0 -i 0 -k MAC
r -t 6.379498000 -s 3 -d 0 -p raw -e 166 -c 2 -a 0 -i 0 -k MAC
r -t 6.379498233 -s 2 -d 0 -p raw -e 108 -c 2 -a 0 -i 0 -k MAC
r -t 6.379498233 -s 7 -d 0 -p raw -e 108 -c 2 -a 0 -i 0 -k MAC
r -t 6.379498330 -s 6 -d 0 -p raw -e 108 -c 2 -a 0 -i 0 -k MAC
+ -t 6.514110000 -s 7 -d 0 -p raw -e 166 -c 2 -a 0 -i 0 -k MAC 
- -t 6.514110000 -s 7 -d 0 -p raw -e 166 -c 2 -a 0 -i 0 -k MAC
h -t 6.514110000 -s 7 -d 0 -p raw -e 166 -c 2 -a 0 -i 0 -k MAC
r -t 6.515438000 -s 7 -d 0 -p raw -e 166 -c 2 -a 0 -i 0 -k MAC
r -t 6.515438233 -s 3 -d 0 -p raw -e 108 -c 2 -a 0 -i 0 -k MAC
r -t 6.515438233 -s 6 -d 0 -p raw -e 108 -c 2 -a 0 -i 0 -k MAC
r -t 6.515438330 -s 2 -d 0 -p raw -e 108 -c 2 -a 0 -i 0 -k MAC
+ -t 7.890070000 -s 6 -d 0 -p raw -e 166 -c 2 -a 0 -i 0 -k MAC 
- -t 7.890070000 -s 6 -d 0 -p raw -e 166 -c 2 -a 0 -i 0 -k MAC
h -t 7.890070000 -s 6 -d 0 -p raw -e 166 -c 2 -a 0 -i 0 -k MAC
r -t 7.891398000 -s 6 -d 0 -p raw -e 166 -c 2 -a 0 -i 0 -k MAC
r -t 7.891398233 -s 2 -d 0 -p raw -e 108 -c 2 -a 0 -i 0 -k MAC
r -t 7.891398233 -s 5 -d 0 -p raw -e 108 -c 2 -a 0 -i 0 -k MAC
r -t 7.891398233 -s 7 -d 0 -p raw -e 108 -c 2 -a 0 -i 0 -k MAC
+ -t 7.944150000 -s 5 -d 0 -p raw -e 166 -c 2 -a 0 -i 0 -k MAC 
- -t 7.944150000 -s 5 -d 0 -p raw -e 166 -c 2 -a 0 -i 0 -k MAC
h -t 7.944150000 -s 5 -d 0 -p raw -e 166 -c 2 -a 0 -i 0 -k MAC
r -t 7.945478000 -s 5 -d 0 -p raw -e 166 -c 2 -a 0 -i 0 -k MAC
r -t 7.945478233 -s 1 -d 0 -p raw -e 108 -c 2 -a 0 -i 0 -k MAC
r -t 7.945478233 -s 4 -d 0 -p raw -e 108 -c 2 -a 0 -i 0 -k MAC
r -t 7.945478233 -s 9 -d 0 -p raw -e 108 -c 2 -a 0 -i 0 -k MAC
r -t 7.945478233 -s 6 -d 0 -p raw -e 108 -c 2 -a 0 -i 0 -k MAC
r -t 7.945478330 -s 8 -d 0 -p raw -e 108 -c 2 -a 0 -i 0 -k MAC
r -t 7.945478330 -s 0 -d 0 -p raw -e 108 -c 2 -a 0 -i 0 -k MAC
r -t 7.945478467 -s 7 -d 0 -p raw -e 108 -c 2 -a 0 -i 0 -k MAC
+ -t 8.036050000 -s 4 -d 0 -p raw -e 166 -c 2 -a 0 -i 0 -k MAC 
- -t 8.036050000 -s 4 -d 0 -p raw -e 166 -c 2 -a 0 -i 0 -k MAC
h -t 8.036050000 -s 4 -d 0 -p raw -e 166 -c 2 -a 0 -i 0 -k MAC
r -t 8.037378000 -s 4 -d 0 -p raw -e 166 -c 2 -a 0 -i 0 -k MAC
r -t 8.037378233 -s 8 -d 0 -p raw -e 108 -c 2 -a 0 -i 0 -k MAC
r -t 8.037378233 -s 5 -d 0 -p raw -e 108 -c 2 -a 0 -i 0 -k MAC
r -t 8.037378330 -s 1 -d 0 -p raw -e 108 -c 2 -a 0 -i 0 -k MAC
r -t 8.037378330 -s 9 -d 0 -p raw -e 108 -c 2 -a 0 -i 0 -k MAC
+ -t 8.097170000 -s 0 -d 0 -p raw -e 166 -c 2 -a 0 -i 0 -k MAC 
- -t 8.097170000 -s 0 -d 0 -p raw -e 166 -c 2 -a 0 -i 0 -k MAC
h -t 8.097170000 -s 0 -d 0 -p raw -e 166 -c 2 -a 0 -i 0 -k MAC
r -t 8.098498000 -s 0 -d 0 -p raw -e 166 -c 2 -a 0 -i 0 -k MAC
r -t 8.098498233 -s 4 -d 0 -p raw -e 108 -c 2 -a 0 -i 0 -k MAC
r -t 8.098498233 -s 1 -d 0 -p raw -e 108 -c 2 -a 0 -i 0 -k MAC
r -t 8.098498330 -s 5 -d 0 -p raw -e 108 -c 2 -a 0 -i 0 -k MAC
+ -t 8.105050000 -s 8 -d 0 -p raw -e 166 -c 2 -a 0 -i 0 -k MAC 
- -t 8.105050000 -s 8 -d 0 -p raw -e 166 -c 2 -a 0 -i 0 -k MAC
h -t 8.105050000 -s 8 -d 0 -p raw -e 166 -c 2 -a 0 -i 0 -k MAC
r -t 8.106378000 -s 8 -d 0 -p raw -e 166 -c 2 -a 0 -i 0 -k MAC
r -t 8.106378233 -s 4 -d 0 -p raw -e 108 -c 2 -a 0 -i 0 -k MAC
r -t 8.106378233 -s 9 -d 0 -p raw -e 108 -c 2 -a 0 -i 0 -k MAC
+ -t 8.137130000 -s 9 -d 0 -p raw -e 166 -c 2 -a 0 -i 0 -k MAC 
- -t 8.137130000 -s 9 -d 0 -p raw -e 166 -c 2 -a 0 -i 0 -k MAC
h -t 8.137130000 -s 9 -d 0 -p raw -e 166 -c 2 -a 0 -i 0 -k MAC
r -t 8.138458000 -s 9 -d 0 -p raw -e 166 -c 2 -a 0 -i 0 -k MAC
r -t 8.138458233 -s 5 -d 0 -p raw -e 108 -c 2 -a 0 -i 0 -k MAC
+ -t 8.177150000 -s 1 -d 0 -p raw -e 166 -c 2 -a 0 -i 0 -k MAC 
- -t 8.177150000 -s 1 -d 0 -p raw -e 166 -c 2 -a 0 -i 0 -k MAC
h -t 8.177150000 -s 1 -d 0 -p raw -e 166 -c 2 -a 0 -i 0 -k MAC
r -t 8.178478000 -s 1 -d 0 -p raw -e 166 -c 2 -a 0 -i 0 -k MAC
r -t 8.178478233 -s 0 -d 0 -p raw -e 108 -c 2 -a 0 -i 0 -k MAC
r -t 8.178478233 -s 5 -d 0 -p raw -e 108 -c 2 -a 0 -i 0 -k MAC
r -t 8.178478233 -s 2 -d 0 -p raw -e 108 -c 2 -a 0 -i 0 -k MAC
+ -t 8.263110000 -s 2 -d 0 -p raw -e 166 -c 2 -a 0 -i 0 -k MAC 
- -t 8.263110000 -s 2 -d 0 -p raw -e 166 -c 2 -a 0 -i 0 -k MAC
h -t 8.263110000 -s 2 -d 0 -p raw -e 166 -c 2 -a 0 -i 0 -k MAC
r -t 8.264438000 -s 2 -d 0 -p raw -e 166 -c 2 -a 0 -i 0 -k MAC
r -t 8.264438233 -s 1 -d 0 -p raw -e 108 -c 2 -a 0 -i 0 -k MAC
r -t 8.264438233 -s 6 -d 0 -p raw -e 108 -c 2 -a 0 -i 0 -k MAC
r -t 8.264438233 -s 3 -d 0 -p raw -e 108 -c 2 -a 0 -i 0 -k MAC
r -t 8.264438330 -s 7 -d 0 -p raw -e 108 -c 2 -a 0 -i 0 -k MAC
+ -t 8.309110000 -s 7 -d 0 -p raw -e 166 -c 2 -a 0 -i 0 -k MAC 
- -t 8.309110000 -s 7 -d 0 -p raw -e 166 -c 2 -a 0 -i 0 -k MAC
h -t 8.309110000 -s 7 -d 0 -p raw -e 166 -c 2 -a 0 -i 0 -k MAC
r -t 8.310438000 -s 7 -d 0 -p raw -e 166 -c 2 -a 0 -i 0 -k MAC
r -t 8.310438233 -s 3 -d 0 -p raw -e 108 -c 2 -a 0 -i 0 -k MAC
r -t 8.310438233 -s 6 -d 0 -p raw -e 108 -c 2 -a 0 -i 0 -k MAC
+ -t 8.348170000 -s 3 -d 0 -p raw -e 166 -c 2 -a 0 -i 0 -k MAC 
- -t 8.348170000 -s 3 -d 0 -p raw -e 166 -c 2 -a 0 -i 0 -k MAC
h -t 8.348170000 -s 3 -d 0 -p raw -e 166 -c 2 -a 0 -i 0 -k MAC
r -t 8.349498000 -s 3 -d 0 -p raw -e 166 -c 2 -a 0 -i 0 -k MAC
r -t 8.349498233 -s 2 -d 0 -p raw -e 108 -c 2 -a 0 -i 0 -k MAC
r -t 8.349498233 -s 7 -d 0 -p raw -e 108 -c 2 -a 0 -i 0 -k MAC
+ -t 9.829050000 -s 6 -d 0 -p raw -e 166 -c 2 -a 0 -i 0 -k MAC 
- -t 9.829050000 -s 6 -d 0 -p raw -e 166 -c 2 -a 0 -i 0 -k MAC
h -t 9.829050000 -s 6 -d 0 -p raw -e 166 -c 2 -a 0 -i 0 -k MAC
r -t 9.830378000 -s 6 -d 0 -p raw -e 166 -c 2 -a 0 -i 0 -k MAC
r -t 9.830378233 -s 2 -d 0 -p raw -e 108 -c 2 -a 0 -i 0 -k MAC
r -t 9.830378233 -s 5 -d 0 -p raw -e 108 -c 2 -a 0 -i 0 -k MAC
r -t 9.830378233 -s 7 -d 0 -p raw -e 108 -c 2 -a 0 -i 0 -k MAC
r -t 9.830378330 -s 3 -d 0 -p raw -e 108 -c 2 -a 0 -i 0 -k MAC
+ -t 9.870050000 -s 5 -d 0 -p raw -e 166 -c 2 -a 0 -i 0 -k MAC 
- -t 9.870050000 -s 5 -d 0 -p raw -e 166 -c 2 -a 0 -i 0 -k MAC
h -t 9.870050000 -s 5 -d 0 -p raw -e 166 -c 2 -a 0 -i 0 -k MAC
r -t 9.871378000 -s 5 -d 0 -p raw -e 166 -c 2 -a 0 -i 0 -k MAC
r -t 9.871378233 -s 1 -d 0 -p raw -e 108 -c 2 -a 0 -i 0 -k MAC
r -t 9.871378233 -s 4 -d 0 -p raw -e 108 -c 2 -a 0 -i 0 -k MAC
r -t 9.871378233 -s 9 -d 0 -p raw -e 108 -c 2 -a 0 -i 0 -k MAC
r -t 9.871378233 -s 6 -d 0 -p raw -e 108 -c 2 -a 0 -i 0 -k MAC
+ -t 9.927170000 -s 8 -d 0 -p raw -e 166 -c 2 -a 0 -i 0 -k MAC 
- -t 9.927170000 -s 8 -d 0 -p raw -e 166 -c 2 -a 0 -i 0 -k MAC
h -t 9.927170000 -s 8 -d 0 -p raw -e 166 -c 2 -a 0 -i 0 -k MAC
r -t 9.928498000 -s 8 -d 0 -p raw -e 166 -c 2 -a 0 -i 0 -k MAC
r -t 9.928498233 -s 4 -d 0 -p raw -e 108 -c 2 -a 0 -i 0 -k MAC
r -t 9.928498233 -s 9 -d 0 -p raw -e 108 -c 2 -a 0 -i 0 -k MAC
+ -t 9.964050000 -s 4 -d 0 -p raw -e 166 -c 2 -a 0 -i 0 -k MAC 
- -t 9.964050000 -s 4 -d 0 -p raw -e 166 -c 2 -a 0 -i 0 -k MAC
h -t 9.964050000 -s 4 -d 0 -p raw -e 166 -c 2 -a 0 -i 0 -k MAC
r -t 9.965378000 -s 4 -d 0 -p raw -e 166 -c 2 -a 0 -i 0 -k MAC
r -t 9.965378233 -s 0 -d 0 -p raw -e 108 -c 2 -a 0 -i 0 -k MAC
r -t 9.965378233 -s 8 -d 0 -p raw -e 108 -c 2 -a 0 -i 0 -k MAC
r -t 9.965378233 -s 5 -d 0 -p raw -e 108 -c 2 -a 0 -i 0 -k MAC
r -t 9.965378467 -s 6 -d 0 -p raw -e 108 -c 2 -a 0 -i 0 -k MAC
+ -t 10.009170000 -s 9 -d 0 -p raw -e 166 -c 2 -a 0 -i 0 -k MAC 
- -t 10.009170000 -s 9 -d 0 -p raw -e 166 -c 2 -a 0 -i 0 -k MAC
h -t 10.009170000 -s 9 -d 0 -p raw -e 166 -c 2 -a 0 -i 0 -k MAC
r -t 10.010498000 -s 9 -d 0 -p raw -e 166 -c 2 -a 0 -i 0 -k MAC
r -t 10.010498233 -s 5 -d 0 -p raw -e 108 -c 2 -a 0 -i 0 -k MAC
r -t 10.010498233 -s 8 -d 0 -p raw -e 108 -c 2 -a 0 -i 0 -k MAC
+ -t 10.060050000 -s 2 -d 0 -p raw -e 166 -c 2 -a 0 -i 0 -k MAC 
- -t 10.060050000 -s 2 -d 0 -p raw -e 166 -c 2 -a 0 -i 0 -k MAC
h -t 10.060050000 -s 2 -d 0 -p raw -e 166 -c 2 -a 0 -i 0 -k MAC
r -t 10.061378000 -s 2 -d 0 -p raw -e 166 -c 2 -a 0 -i 0 -k MAC
r -t 10.061378233 -s 1 -d 0 -p raw -e 108 -c 2 -a 0 -i 0 -k MAC
r -t 10.061378233 -s 6 -d 0 -p raw -e 108 -c 2 -a 0 -i 0 -k MAC
r -t 10.061378330 -s 5 -d 0 -p raw -e 108 -c 2 -a 0 -i 0 -k MAC
+ -t 10.166050000 -s 0 -d 0 -p raw -e 166 -c 2 -a 0 -i 0 -k MAC 
- -t 10.166050000 -s 0 -d 0 -p raw -e 166 -c 2 -a 0 -i 0 -k MAC
h -t 10.166050000 -s 0 -d 0 -p raw -e 166 -c 2 -a 0 -i 0 -k MAC
r -t 10.167378000 -s 0 -d 0 -p raw -e 166 -c 2 -a 0 -i 0 -k MAC
r -t 10.167378233 -s 4 -d 0 -p raw -e 108 -c 2 -a 0 -i 0 -k MAC
r -t 10.167378233 -s 1 -d 0 -p raw -e 108 -c 2 -a 0 -i 0 -k MAC
+ -t 10.268130000 -s 7 -d 0 -p raw -e 166 -c 2 -a 0 -i 0 -k MAC 
- -t 10.268130000 -s 7 -d 0 -p raw -e 166 -c 2 -a 0 -i 0 -k MAC
h -t 10.268130000 -s 7 -d 0 -p raw -e 166 -c 2 -a 0 -i 0 -k MAC
r -t 10.269458000 -s 7 -d 0 -p raw -e 166 -c 2 -a 0 -i 0 -k MAC
r -t 10.269458233 -s 3 -d 0 -p raw -e 108 -c 2 -a 0 -i 0 -k MAC
r -t 10.269458233 -s 6 -d 0 -p raw -e 108 -c 2 -a 0 -i 0 -k MAC
r -t 10.269458330 -s 2 -d 0 -p raw -e 108 -c 2 -a 0 -i 0 -k MAC
+ -t 10.293150000 -s 3 -d 0 -p raw -e 166 -c 2 -a 0 -i 0 -k MAC 
- -t 10.293150000 -s 3 -d 0 -p raw -e 166 -c 2 -a 0 -i 0 -k MAC
h -t 10.293150000 -s 3 -d 0 -p raw -e 166 -c 2 -a 0 -i 0 -k MAC
r -t 10.294478000 -s 3 -d 0 -p raw -e 166 -c 2 -a 0 -i 0 -k MAC
r -t 10.294478233 -s 7 -d 0 -p raw -e 108 -c 2 -a 0 -i 0 -k MAC
+ -t 10.333170000 -s 1 -d 0 -p raw -e 166 -c 2 -a 0 -i 0 -k MAC 
- -t 10.333170000 -s 1 -d 0 -p raw -e 166 -c 2 -a 0 -i 0 -k MAC
h -t 10.333170000 -s 1 -d 0 -p raw -e 166 -c 2 -a 0 -i 0 -k MAC
r -t 10.334498000 -s 1 -d 0 -p raw -e 166 -c 2 -a 0 -i 0 -k MAC
r -t 10.334498233 -s 0 -d 0 -p raw -e 108 -c 2 -a 0 -i 0 -k MAC
r -t 10.334498233 -s 5 -d 0 -p raw -e 108 -c 2 -a 0 -i 0 -k MAC
r -t 10.334498330 -s 4 -d 0 -p raw -e 108 -c 2 -a 0 -i 0 -k MAC
r -t 10.334498330 -s 6 -d 0 -p raw -e 108 -c 2 -a 0 -i 0 -k MAC
+ -t 11.913130000 -s 6 -d 0 -p raw -e 166 -c 2 -a 0 -i 0 -k MAC 
- -t 11.913130000 -s 6 -d 0 -p raw -e 166 -c 2 -a 0 -i 0 -k MAC
h -t 11.913130000 -s 6 -d 0 -p raw -e 166 -c 2 -a 0 -i 0 -k MAC
r -t 11.914458000 -s 6 -d 0 -p raw -e 166 -c 2 -a 0 -i 0 -k MAC
r -t 11.914458233 -s 2 -d 0 -p raw -e 108 -c 2 -a 0 -i 0 -k MAC
r -t 11.914458233 -s 5 -d 0 -p raw -e 108 -c 2 -a 0 -i 0 -k MAC
r -t 11.914458233 -s 7 -d 0 -p raw -e 108 -c 2 -a 0 -i 0 -k MAC
r -t 11.914458330 -s 1 -d 0 -p raw -e 108 -c 2 -a 0 -i 0 -k MAC
+ -t 11.946170000 -s 5 -d 0 -p raw -e 166 -c 2 -a 0 -i 0 -k MAC 
- -t 11.946170000 -s 5 -d 0 -p raw -e 166 -c 2 -a 0 -i 0 -k MAC
h -t 11.946170000 -s 5 -d 0 -p raw -e 166 -c 2 -a 0 -i 0 -k MAC
r -t 11.947498000 -s 5 -d 0 -p raw -e 166 -c 2 -a 0 -i 0 -k MAC
r -t 11.947498233 -s 1 -d 0 -p raw -e 108 -c 2 -a 0 -i 0 -k MAC
r -t 11.947498233 -s 4 -d 0 -p raw -e 108 -c 2 -a 0 -i 0 -k MAC
r -t 11.947498233 -s 9 -d 0 -p raw -e 108 -c 2 -a 0 -i 0 -k MAC
r -t 11.947498233 -s 6 -d 0 -p raw -e 108 -c 2 -a 0 -i 0 -k MAC
r -t 11.947498330 -s 8 -d 0 -p raw -e 108 -c 2 -a 0 -i 0 -k MAC
r -t 11.947498330 -s 0 -d 0 -p raw -e 108 -c 2 -a 0 -i 0 -k MAC
+ -t 11.961090000 -s 8 -d 0 -p raw -e 166 -c 2 -a 0 -i 0 -k MAC 
- -t 11.961090000 -s 8 -d 0 -p raw -e 166 -c 2 -a 0 -i 0 -k MAC
h -t 11.961090000 -s 8 -d 0 -p raw -e 166 -c 2 -a 0 -i 0 -k MAC
r -t 11.962418000 -s 8 -d 0 -p raw -e 166 -c 2 -a 0 -i 0 -k MAC
r -t 11.962418233 -s 4 -d 0 -p raw -e 108 -c 2 -a 0 -i 0 -k MAC
r -t 11.962418233 -s 9 -d 0 -p raw -e 108 -c 2 -a 0 -i 0 -k MAC
+ -t 12.165070000 -s 0 -d 0 -p raw -e 166 -c 2 -a 0 -i 0 -k MAC 
- -t 12.165070000 -s 0 -d 0 -p raw -e 166 -c 2 -a 0 -i 0 -k MAC
h -t 12.165070000 -s 0 -d 0 -p raw -e 166 -c 2 -a 0 -i 0 -k MAC
r -t 12.166398000 -s 0 -d 0 -p raw -e 166 -c 2 -a 0 -i 0 -k MAC
r -t 12.166398233 -s 4 -d 0 -p raw -e 108 -c 2 -a 0 -i 0 -k MAC
r -t 12.166398233 -s 1 -d 0 -p raw -e 108 -c 2 -a 0 -i 0 -k MAC
+ -t 12.195050000 -s 9 -d 0 -p raw -e 166 -c 2 -a 0 -i 0 -k MAC 
- -t 12.195050000 -s 9 -d 0 -p raw -e 166 -c 2 -a 0 -i 0 -k MAC
h -t 12.195050000 -s 9 -d 0 -p raw -e 166 -c 2 -a 0 -i 0 -k MAC
r -t 12.196378000 -s 9 -d 0 -p raw -e 166 -c 2 -a 0 -i 0 -k MAC
r -t 12.196378233 -s 5 -d 0 -p raw -e 108 -c 2 -a 0 -i 0 -k MAC
r -t 12.196378233 -s 8 -d 0 -p raw -e 108 -c 2 -a 0 -i 0 -k MAC
+ -t 12.237090000 -s 4 -d 0 -p raw -e 166 -c 2 -a 0 -i 0 -k MAC 
- -t 12.237090000 -s 4 -d 0 -p raw -e 166 -c 2 -a 0 -i 0 -k MAC
h -t 12.237090000 -s 4 -d 0 -p raw -e 166 -c 2 -a 0 -i 0 -k MAC
r -t 12.238418000 -s 4 -d 0 -p raw -e 166 -c 2 -a 0 -i 0 -k MAC