s 0.101510000 _1_ MAC  --- 0 raw 1526 [0 ffffffff 1 800] ------- [0:0 0:0 0 0] raw 
r 0.113718100 _0_ MAC  --- 0 raw 1468 [0 ffffffff 1 800] ------- [0:0 0:0 0 0] raw 
s 0.201610000 _1_ MAC  --- 0 raw 1526 [0 ffffffff 1 800] ------- [0:0 0:0 0 0] raw 
r 0.213818100 _0_ MAC  --- 0 raw 1468 [0 ffffffff 1 800] ------- [0:0 0:0 0 0] raw 
s 0.301370000 _1_ MAC  --- 0 raw 1526 [0 ffffffff 1 800] ------- [0:0 0:0 0 0] raw 
r 0.313578100 _0_ MAC  --- 0 raw 1468 [0 ffffffff 1 800] ------- [0:0 0:0 0 0] raw 
s 0.401210000 _1_ MAC  --- 0 raw 1526 [0 ffffffff 1 800] ------- [0:0 0:0 0 0] raw 
r 0.413418100 _0_ MAC  --- 0 raw 1468 [0 ffffffff 1 800] ------- [0:0 0:0 0 0] raw 
s 0.501290000 _1_ MAC  --- 0 raw 1526 [0 ffffffff 1 800] ------- [0:0 0:0 0 0] raw 
r 0.513498100 _0_ MAC  --- 0 raw 1468 [0 ffffffff 1 800] ------- [0:0 0:0 0 0] raw 
s 0.601310000 _1_ MAC  --- 0 raw 1526 [0 ffffffff 1 800] ------- [0:0 0:0 0 0] raw 
r 0.613518100 _0_ MAC  --- 0 raw 1468 [0 ffffffff 1 800] ------- [0:0 0:0 0 0] raw 
s 0.701090000 _1_ MAC  --- 0 raw 1526 [0 ffffffff 1 800] ------- [0:0 0:0 0 0] raw 
r 0.713298100 _0_ MAC  --- 0 raw 1468 [0 ffffffff 1 800] ------- [0:0 0:0 0 0] raw 
s 0.801210000 _1_ MAC  --- 0 raw 1526 [0 ffffffff 1 800] ------- [0:0 0:0 0 0] raw 
r 0.813418100 _0_ MAC  --- 0 raw 1468 [0 ffffffff 1 800] ------- [0:0 0:0 0 0] raw 
s 0.901290000 _1_ MAC  --- 0 raw 1526 [0 ffffffff 1 800] ------- [0:0 0:0 0 0] raw 
r 0.913498100 _0_ MAC  --- 0 raw 1468 [0 ffffffff 1 800] ------- [0:0 0:0 0 0] raw 
s 1.001530000 _1_ MAC  --- 0 raw 1526 [0 ffffffff 1 800] ------- [0:0 0:0 0 0] raw 
r 1.013738100 _0_ MAC  --- 0 raw 1468 [0 ffffffff 1 800] ------- [0:0 0:0 0 0] raw 
s 1.101370000 _1_ MAC  --- 0 raw 1526 [0 ffffffff 1 800] ------- [0:0 0:0 0 0] raw 
r 1.113578100 _0_ MAC  --- 0 raw 1468 [0 ffffffff 1 800] ------- [0:0 0:0 0 0] raw 
s 1.201270000 _1_ MAC  --- 0 raw 1526 [0 ffffffff 1 800] ------- [0:0 0:0 0 0] raw 
r 1.213478100 _0_ MAC  --- 0 raw 1468 [0 ffffffff 1 800] ------- [0:0 0:0 0 0] raw 
s 1.301290000 _1_ MAC  --- 0 raw 1526 [0 ffffffff 1 800] ------- [0:0 0:0 0 0] raw 
r 1.313498100 _0_ MAC  --- 0 raw 1468 [0 ffffffff 1 800] ------- [0:0 0:0 0 0] raw 
s 1.401230000 _1_ MAC  --- 0 raw 1526 [0 ffffffff 1 800] ------- [0:0 0:0 0 0] raw 
r 1.413438100 _0_ MAC  --- 0 raw 1468 [0 ffffffff 1 800] ------- [0:0 0:0 0 0] raw 
s 1.501450000 _1_ MAC  --- 0 raw 1526 [0 ffffffff 1 800] ------- [0:0 0:0 0 0] raw 
r 1.513658100 _0_ MAC  --- 0 raw 1468 [0 ffffffff 1 800] ------- [0:0 0:0 0 0] raw 
s 1.601410000 _1_ MAC  --- 0 raw 1526 [0 ffffffff 1 800] ------- [0:0 0:0 0 0] raw 
r 1.613618100 _0_ MAC  --- 0 raw 1468 [0 ffffffff 1 800] ------- [0:0 0:0 0 0] raw 
s 1.701350000 _1_ MAC  --- 0 raw 1526 [0 ffffffff 1 800] ------- [0:0 0:0 0 0] raw 
r 1.713558100 _0_ MAC  --- 0 raw 1468 [0 ffffffff 1 800] ------- [0:0 0:0 0 0] raw 
s 1.801190000 _1_ MAC  --- 0 raw 1526 [0 ffffffff 1 800] ------- [0:0 0:0 0 0] raw 
r 1.813398100 _0_ MAC  --- 0 raw 1468 [0 ffffffff 1 800] ------- [0:0 0:0 0 0] raw 
s 1.901330000 _1_ MAC  --- 0 raw 1526 [0 ffffffff 1 800] ------- [0:0 0:0 0 0] raw 
r 1.913538100 _0_ MAC  --- 0 raw 1468 [0 ffffffff 1 800] ------- [0:0 0:0 0 0] raw 
s 2.001150000 _1_ MAC  --- 0 raw 1526 [0 ffffffff 1 800] ------- [0:0 0:0 0 0] raw 
r 2.013358100 _0_ MAC  --- 0 raw 1468 [0 ffffffff 1 800] ------- [0:0 0:0 0 0] raw 
s 2.101270000 _1_ MAC  --- 0 raw 1526 [0 ffffffff 1 800] ------- [0:0 0:0 0 0] raw 
s 2.201630000 _1_ MAC  --- 0 raw 1526 [0 ffffffff 1 800] ------- [0:0 0:0 0 0] raw 
r 2.213838100 _0_ MAC  --- 0 raw 1468 [0 ffffffff 1 800] ------- [0:0 0:0 0 0] raw 
s 2.301170000 _1_ MAC  --- 0 raw 1526 [0 ffffffff 1 800] ------- [0:0 0:0 0 0] raw 
r 2.313378100 _0_ MAC  --- 0 raw 1468 [0 ffffffff 1 800] ------- [0:0 0:0 0 0] raw 
s 2.401550000 _1_ MAC  --- 0 raw 1526 [0 ffffffff 1 800] ------- [0:0 0:0 0 0] raw 
r 2.413758100 _0_ MAC  --- 0 raw 1468 [0 ffffffff 1 800] ------- [0:0 0:0 0 0] raw 
s 2.501230000 _1_ MAC  --- 0 raw 1526 [0 ffffffff 1 800] ------- [0:0 0:0 0 0] raw 
r 2.513438100 _0_ MAC  --- 0 raw 1468 [0 ffffffff 1 800] ------- [0:0 0:0 0 0] raw 
s 2.601530000 _1_ MAC  --- 0 raw 1526 [0 ffffffff 1 800] ------- [0:0 0:0 0 0] raw 
r 2.613738100 _0_ MAC  --- 0 raw 1468 [0 ffffffff 1 800] ------- [0:0 0:0 0 0] raw 
s 2.701270000 _1_ MAC  --- 0 raw 1526 [0 ffffffff 1 800] ------- [0:0 0:0 0 0] raw 
r 2.713478100 _0_ MAC  --- 0 raw 1468 [0 ffffffff 1 800] ------- [0:0 0:0 0 0] raw 
s 2.801210000 _1_ MAC  --- 0 raw 1526 [0 ffffffff 1 800] ------- [0:0 0:0 0 0] raw 
r 2.813418100 _0_ MAC  --- 0 raw 1468 [0 ffffffff 1 800] ------- [0:0 0:0 0 0] raw 
s 2.901130000 _1_ MAC  --- 0 raw 1526 [0 ffffffff 1 800] ------- [0:0 0:0 0 0] raw 
r 2.913338100 _0_ MAC  --- 0 raw 1468 [0 ffffffff 1 800] ------- [0:0 0:0 0 0] raw 
s 3.001050000 _1_ MAC  --- 0 raw 1526 [0 ffffffff 1 800] ------- [0:0 0:0 0 0] raw 
r 3.013258100 _0_ MAC  --- 0 raw 1468 [0 ffffffff 1 800] ------- [0:0 0:0 0 0] raw 
s 3.101350000 _1_ MAC  --- 0 raw 1526 [0 ffffffff 1 800] ------- [0:0 0:0 0 0] raw 
r 3.113558100 _0_ MAC  --- 0 raw 1468 [0 ffffffff 1 800] ------- [0:0 0:0 0 0] raw 
s 3.201070000 _1_ MAC  --- 0 raw 1526 [0 ffffffff 1 800] ------- [0:0 0:0 0 0] raw 
r 3.213278100 _0_ MAC  --- 0 raw 1468 [0 ffffffff 1 800] ------- [0:0 0:0 0 0] raw 
s 3.301290000 _1_ MAC  --- 0 raw 1526 [0 ffffffff 1 800] ------- [0:0 0:0 0 0] raw 
r 3.313498100 _0_ MAC  --- 0 raw 1468 [0 ffffffff 1 800] ------- [0:0 0:0 0 0] raw 
s 3.401350000 _1_ MAC  --- 0 raw 1526 [0 ffffffff 1 800] ------- [0:0 0:0 0 0] raw 
r 3.413558100 _0_ MAC  --- 0 raw 1468 [0 ffffffff 1 800] ------- [0:0 0:0 0 0] raw 
s 3.501510000 _1_ MAC  --- 0 raw 1526 [0 ffffffff 1 800] ------- [0:0 0:0 0 0] raw 
r 3.513718100 _0_ MAC  --- 0 raw 1468 [0 ffffffff 1 800] ------- [0:0 0:0 0 0] raw 
s 3.601250000 _1_ MAC  --- 0 raw 1526 [0 ffffffff 1 800] ------- [0:0 0:0 0 0] raw 
r 3.613458100 _0_ MAC  --- 0 raw 1468 [0 ffffffff 1 800] ------- [0:0 0:0 0 0] raw 
s 3.701130000 _1_ MAC  --- 0 raw 1526 [0 ffffffff 1 800] ------- [0:0 0:0 0 0] raw 
r 3.713338100 _0_ MAC  --- 0 raw 1468 [0 ffffffff 1 800] ------- [0:0 0:0 0 0] raw 
s 3.801250000 _1_ MAC  --- 0 raw 1526 [0 ffffffff 1 800] ------- [0:0 0:0 0 0] raw 
r 3.813458100 _0_ MAC  --- 0 raw 1468 [0 ffffffff 1 800] ------- [0:0 0:0 0 0] raw 
s 3.901390000 _1_ MAC  --- 0 raw 1526 [0 ffffffff 1 800] ------- [0:0 0:0 0 0] raw 
r 3.913598100 _0_ MAC  --- 0 raw 1468 [0 ffffffff 1 800] ------- [0:0 0:0 0 0] raw 
s 4.001170000 _1_ MAC  --- 0 raw 1526 [0 ffffffff 1 800] ------- [0:0 0:0 0 0] raw 
r 4.013378100 _0_ MAC  --- 0 raw 1468 [0 ffffffff 1 800] ------- [0:0 0:0 0 0] raw 
s 4.101630000 _1_ MAC  --- 0 raw 1526 [0 ffffffff 1 800] ------- [0:0 0:0 0 0] raw 
r 4.113838100 _0_ MAC  --- 0 raw 1468 [0 ffffffff 1 800] ------- [0:0 0:0 0 0] raw 
s 4.201650000 _1_ MAC  --- 0 raw 1526 [0 ffffffff 1 800] ------- [0:0 0:0 0 0] raw 
r 4.213858100 _0_ MAC  --- 0 raw 1468 [0 ffffffff 1 800] ------- [0:0 0:0 0 0] raw 
s 4.301590000 _1_ MAC  --- 0 raw 1526 [0 ffffffff 1 800] ------- [0:0 0:0 0 0] raw 
r 4.313798100 _0_ MAC  --- 0 raw 1468 [0 ffffffff 1 800] ------- [0:0 0:0 0 0] raw 
s 4.401350000 _1_ MAC  --- 0 raw 1526 [0 ffffffff 1 800] ------- [0:0 0:0 0 0] raw 
r 4.413558100 _0_ MAC  --- 0 raw 1468 [0 ffffffff 1 800] ------- [0:0 0:0 0 0] raw 
s 4.501390000 _1_ MAC  --- 0 raw 1526 [0 ffffffff 1 800] ------- [0:0 0:0 0 0] raw 
r 4.513598100 _0_ MAC  --- 0 raw 1468 [0 ffffffff 1 800] ------- [0:0 0:0 0 0] raw 
s 4.601630000 _1_ MAC  --- 0 raw 1526 [0 ffffffff 1 800] ------- [0:0 0:0 0 0] raw 
r 4.613838100 _0_ MAC  --- 0 raw 1468 [0 ffffffff 1 800] ------- [0:0 0:0 0 0] raw 
s 4.701230000 _1_ MAC  --- 0 raw 1526 [0 ffffffff 1 800] ------- [0:0 0:0 0 0] raw 
r 4.713438100 _0_ MAC  --- 0 raw 1468 [0 ffffffff 1 800] ------- [0:0 0:0 0 0] raw 
s 4.801490000 _1_ MAC  --- 0 raw 1526 [0 ffffffff 1 800] ------- [0:0 0:0 0 0] raw 
r 4.813698100 _0_ MAC  --- 0 raw 1468 [0 ffffffff 1 800] ------- [0:0 0:0 0 0] raw 
s 4.901170000 _1_ MAC  --- 0 raw 1526 [0 ffffffff 1 800] ------- [0:0 0:0 0 0] raw 
r 4.913378100 _0_ MAC  --- 0 raw 1468 [0 ffffffff 1 800] ------- [0:0 0:0 0 0] raw 
s 5.001270000 _1_ MAC  --- 0 raw 1526 [0 ffffffff 1 800] ------- [0:0 0:0 0 0] raw 
r 5.013478100 _0_ MAC  --- 0 raw 1468 [0 ffffffff 1 800] ------- [0:0 0:0 0 0] raw 
s 5.101190000 _1_ MAC  --- 0 raw 1526 [0 ffffffff 1 800] ------- [0:0 0:0 0 0] raw 
r 5.113398100 _0_ MAC  --- 0 raw 1468 [0 ffffffff 1 800] ------- [0:0 0:0 0 0] raw 
s 5.201370000 _1_ MAC  --- 0 raw 1526 [0 ffffffff 1 800] ------- [0:0 0:0 0 0] raw 
r 5.213578100 _0_ MAC  --- 0 raw 1468 [0 ffffffff 1 800] ------- [0:0 0:0 0 0] raw 
s 5.301550000 _1_ MAC  --- 0 raw 1526 [0 ffffffff 1 800] ------- [0:0 0:0 0 0] raw 
r 5.313758100 _0_ MAC  --- 0 raw 1468 [0 ffffffff 1 800] ------- [0:0 0:0 0 0] raw 
s 5.401210000 _1_ MAC  --- 0 raw 1526 [0 ffffffff 1 800] ------- [0:0 0:0 0 0] raw 
r 5.413418100 _0_ MAC  --- 0 raw 1468 [0 ffffffff 1 800] ------- [0:0 0:0 0 0] raw 
s 5.501310000 _1_ MAC  --- 0 raw 1526 [0 ffffffff 1 800] ------- [0:0 0:0 0 0] raw 
r 5.513518100 _0_ MAC  --- 0 raw 1468 [0 ffffffff 1 800] ------- [0:0 0:0 0 0] raw 
s 5.601050000 _1_ MAC  --- 0 raw 1526 [0 ffffffff 1 800] ------- [0:0 0:0 0 0] raw 
r 5.613258100 _0_ MAC  --- 0 raw 1468 [0 ffffffff 1 800] ------- [0:0 0:0 0 0] raw 
s 5.701570000 _1_ MAC  --- 0 raw 1526 [0 ffffffff 1 800] ------- [0:0 0:0 0 0] raw 
r 5.713778100 _0_ MAC  --- 0 raw 1468 [0 ffffffff 1 800] ------- [0:0 0:0 0 0] raw 
s 5.801470000 _1_ MAC  --- 0 raw 1526 [0 ffffffff 1 800] ------- [0:0 0:0 0 0] raw 
r 5.813678100 _0_ MAC  --- 0 raw 1468 [0 ffffffff 1 800] ------- [0:0 0:0 0 0] raw 
s 5.901070000 _1_ MAC  --- 0 raw 1526 [0 ffffffff 1 800] ------- [0:0 0:0 0 0] raw 
r 5.913278100 _0_ MAC  --- 0 raw 1468 [0 ffffffff 1 800] ------- [0:0 0:0 0 0] raw 
s 6.001310000 _1_ MAC  --- 0 raw 1526 [0 ffffffff 1 800] ------- [0:0 0:0 0 0] raw 
r 6.013518100 _0_ MAC  --- 0 raw 1468 [0 ffffffff 1 800] ------- [0:0 0:0 0 0] raw 
s 6.101070000 _1_ MAC  --- 0 raw 1526 [0 ffffffff 1 800] ------- [0:0 0:0 0 0] raw 
r 6.113278100 _0_ MAC  --- 0 raw 1468 [0 ffffffff 1 800] ------- [0:0 0:0 0 0] raw 
s 6.201490000 _1_ MAC  --- 0 raw 1526 [0 ffffffff 1 800] ------- [0:0 0:0 0 0] raw 
r 6.213698100 _0_ MAC  --- 0 raw 1468 [0 ffffffff 1 800] ------- [0:0 0:0 0 0] raw 
s 6.301530000 _1_ MAC  --- 0 raw 1526 [0 ffffffff 1 800] ------- [0:0 0:0 0 0] raw 
r 6.313738100 _0_ MAC  --- 0 raw 1468 [0 ffffffff 1 800] ------- [0:0 0:0 0 0] raw 
s 6.401230000 _1_ MAC  --- 0 raw 1526 [0 ffffffff 1 800] ------- [0:0 0:0 0 0] raw 
r 6.413438100 _0_ MAC  --- 0 raw 1468 [0 ffffffff 1 800] ------- [0:0 0:0 0 0] raw 
s 6.501230000 _1_ MAC  --- 0 raw 1526 [0 ffffffff 1 800] ------- [0:0 0:0 0 0] raw 
r 6.513438100 _0_ MAC  --- 0 raw 1468 [0 ffffffff 1 800] ------- [0:0 0:0 0 0] raw 
s 6.601290000 _1_ MAC  --- 0 raw 1526 [0 ffffffff 1 800] ------- [0:0 0:0 0 0] raw 
r 6.613498100 _0_ MAC  --- 0 raw 1468 [0 ffffffff 1 800] ------- [0:0 0:0 0 0] raw 
s 6.701150000 _1_ MAC  --- 0 raw 1526 [0 ffffffff 1 800] ------- [0:0 0:0 0 0] raw 
r 6.713358100 _0_ MAC  --- 0 raw 1468 [0 ffffffff 1 800] ------- [0:0 0:0 0 0] raw 
s 6.801590000 _1_ MAC  --- 0 raw 1526 [0 ffffffff 1 800] ------- [0:0 0:0 0 0] raw 
r 6.813798100 _0_ MAC  --- 0 raw 1468 [0 ffffffff 1 800] ------- [0:0 0:0 0 0] raw 
s 6.901630000 _1_ MAC  --- 0 raw 1526 [0 ffffffff 1 800] ------- [0:0 0:0 0 0] raw 
r 6.913838100 _0_ MAC  --- 0 raw 1468 [0 ffffffff 1 800] ------- [0:0 0:0 0 0] raw 
s 7.001270000 _1_ MAC  --- 0 raw 1526 [0 ffffffff 1 800] ------- [0:0 0:0 0 0] raw 
r 7.013478100 _0_ MAC  --- 0 raw 1468 [0 ffffffff 1 800] ------- [0:0 0:0 0 0] raw 
s 7.101190000 _1_ MAC  --- 0 raw 1526 [0 ffffffff 1 800] ------- [0:0 0:0 0 0] raw 
r 7.113398100 _0_ MAC  --- 0 raw 1468 [0 ffffffff 1 800] ------- [0:0 0:0 0 0] raw 
s 7.201570000 _1_ MAC  --- 0 raw 1526 [0 ffffffff 1 800] ------- [0:0 0:0 0 0] raw 
r 7.213778100 _0_ MAC  --- 0 raw 1468 [0 ffffffff 1 800] ------- [0:0 0:0 0 0] raw 
s 7.301230000 _1_ MAC  --- 0 raw 1526 [0 ffffffff 1 800] ------- [0:0 0:0 0 0] raw 
r 7.313438100 _0_ MAC  --- 0 raw 1468 [0 ffffffff 1 800] ------- [0:0 0:0 0 0] raw 
s 7.401430000 _1_ MAC  --- 0 raw 1526 [0 ffffffff 1 800] ------- [0:0 0:0 0 0] raw 
r 7.413638100 _0_ MAC  --- 0 raw 1468 [0 ffffffff 1 800] ------- [0:0 0:0 0 0] raw 
s 7.501290000 _1_ MAC  --- 0 raw 1526 [0 ffffffff 1 800] ------- [0:0 0:0 0 0] raw 
r 7.513498100 _0_ MAC  --- 0 raw 1468 [0 ffffffff 1 800] ------- [0:0 0:0 0 0] raw 
s 7.601170000 _1_ MAC  --- 0 raw 1526 [0 ffffffff 1 800] ------- [0:0 0:0 0 0] raw 
r 7.613378100 _0_ MAC  --- 0 raw 1468 [0 ffffffff 1 800] ------- [0:0 0:0 0 0] raw 
s 7.701210000 _1_ MAC  --- 0 raw 1526 [0 ffffffff 1 800] ------- [0:0 0:0 0 0] raw 
r 7.713418100 _0_ MAC  --- 0 raw 1468 [0 ffffffff 1 800] ------- [0:0 0:0 0 0] raw 
s 7.801650000 _1_ MAC  --- 0 raw 1526 [0 ffffffff 1 800] ------- [0:0 0:0 0 0] raw 
r 7.813858100 _0_ MAC  --- 0 raw 1468 [0 ffffffff 1 800] ------- [0:0 0:0 0 0] raw 
s 7.901590000 _1_ MAC  --- 0 raw 1526 [0 ffffffff 1 800] ------- [0:0 0:0 0 0] raw 
r 7.913798100 _0_ MAC  --- 0 raw 1468 [0 ffffffff 1 800] ------- [0:0 0:0 0 0] raw 
s 8.001090000 _1_ MAC  --- 0 raw 1526 [0 ffffffff 1 800] ------- [0:0 0:0 0 0] raw 
r 8.013298100 _0_ MAC  --- 0 raw 1468 [0 ffffffff 1 800] ------- [0:0 0:0 0 0] raw 
s 8.101410000 _1_ MAC  --- 0 raw 1526 [0 ffffffff 1 800] ------- [0:0 0:0 0 0] raw 
r 8.113618100 _0_ MAC  --- 0 raw 1468 [0 ffffffff 1 800] ------- [0:0 0:0 0 0] raw 
s 8.201130000 _1_ MAC  --- 0 raw 1526 [0 ffffffff 1 800] ------- [0:0 0:0 0 0] raw 
r 8.213338100 _0_ MAC  --- 0 raw 1468 [0 ffffffff 1 800] ------- [0:0 0:0 0 0] raw 
s 8.301350000 _1_ MAC  --- 0 raw 1526 [0 ffffffff 1 800] ------- [0:0 0:0 0 0] raw 
r 8.313558100 _0_ MAC  --- 0 raw 1468 [0 ffffffff 1 800] ------- [0:0 0:0 0 0] raw 
s 8.401370000 _1_ MAC  --- 0 raw 1526 [0 ffffffff 1 800] ------- [0:0 0:0 0 0] raw 
r 8.413578100 _0_ MAC  --- 0 raw 1468 [0 ffffffff 1 800] ------- [0:0 0:0 0 0] raw 
s 8.501090000 _1_ MAC  --- 0 raw 1526 [0 ffffffff 1 800] ------- [0:0 0:0 0 0] raw 
r 8.513298100 _0_ MAC  --- 0 raw 1468 [0 ffffffff 1 800] ------- [0:0 0:0 0 0] raw 
s 8.601550000 _1_ MAC  --- 0 raw 1526 [0 ffffffff 1 800] ------- [0:0 0:0 0 0] raw 
r 8.613758100 _0_ MAC  --- 0 raw 1468 [0 ffffffff 1 800] ------- [0:0 0:0 0 0] raw 
s 8.701650000 _1_ MAC  --- 0 raw 1526 [0 ffffffff 1 800] ------- [0:0 0:0 0 0] raw 
r 8.713858100 _0_ MAC  --- 0 raw 1468 [0 ffffffff 1 800] ------- [0:0 0:0 0 0] raw 
s 8.801610000 _1_ MAC  --- 0 raw 1526 [0 ffffffff 1 800] ------- [0:0 0:0 0 0] raw 
r 8.813818100 _0_ MAC  --- 0 raw 1468 [0 ffffffff 1 800] ------- [0:0 0:0 0 0] raw 
s 8.901430000 _1_ MAC  --- 0 raw 1526 [0 ffffffff 1 800] ------- [0:0 0:0 0 0] raw 
r 8.913638100 _0_ MAC  --- 0 raw 1468 [0 ffffffff 1 800] ------- [0:0 0:0 0 0] raw 
s 9.001350000 _1_ MAC  --- 0 raw 1526 [0 ffffffff 1 800] ------- [0:0 0:0 0 0] raw 
r 9.013558100 _0_ MAC  --- 0 raw 1468 [0 ffffffff 1 800] ------- [0:0 0:0 0 0] raw 
s 9.101170000 _1_ MAC  --- 0 raw 1526 [0 ffffffff 1 800] ------- [0:0 0:0 0 0] raw 
r 9.113378100 _0_ MAC  --- 0 raw 1468 [0 ffffffff 1 800] ------- [0:0 0:0 0 0] raw 
s 9.201070000 _1_ MAC  --- 0 raw 1526 [0 ffffffff 1 800] ------- [0:0 0:0 0 0] raw 
r 9.213278100 _0_ MAC  --- 0 raw 1468 [0 ffffffff 1 800] ------- [0:0 0:0 0 0] raw 
s 9.301130000 _1_ MAC  --- 0 raw 1526 [0 ffffffff 1 800] ------- [0:0 0:0 0 0] raw 
r 9.313338100 _0_ MAC  --- 0 raw 1468 [0 ffffffff 1 800] ------- [0:0 0:0 0 0] raw 
s 9.401510000 _1_ MAC  --- 0 raw 1526 [0 ffffffff 1 800] ------- [0:0 0:0 0 0] raw 
r 9.413718100 _0_ MAC  --- 0 raw 1468 [0 ffffffff 1 800] ------- [0:0 0:0 0 0] raw 
s 9.501210000 _1_ MAC  --- 0 raw 1526 [0 ffffffff 1 800] ------- [0:0 0:0 0 0] raw 
r 9.513418100 _0_ MAC  --- 0 raw 1468 [0 ffffffff 1 800] ------- [0:0 0:0 0 0] raw 
s 9.601150000 _1_ MAC  --- 0 raw 1526 [0 ffffffff 1 800] ------- [0:0 0:0 0 0] raw 
r 9.613358100 _0_ MAC  --- 0 raw 1468 [0 ffffffff 1 800] ------- [0:0 0:0 0 0] raw 
s 9.701570000 _1_ MAC  --- 0 raw 1526 [0 ffffffff 1 800] ------- [0:0 0:0 0 0] raw 
r 9.713778100 _0_ MAC  --- 0 raw 1468 [0 ffffffff 1 800] ------- [0:0 0:0 0 0] raw 
s 9.801150000 _1_ MAC  --- 0 raw 1526 [0 ffffffff 1 800] ------- [0:0 0:0 0 0] raw 
r 9.813358100 _0_ MAC  --- 0 raw 1468 [0 ffffffff 1 800] ------- [0:0 0:0 0 0] raw 
s 9.901110000 _1_ MAC  --- 0 raw 1526 [0 ffffffff 1 800] ------- [0:0 0:0 0 0] raw 
r 9.913318100 _0_ MAC  --- 0 raw 1468 [0 ffffffff 1 800] ------- [0:0 0:0 0 0] raw 
s 10.001370000 _1_ MAC  --- 0 raw 1526 [0 ffffffff 1 800] ------- [0:0 0:0 0 0] raw 
r 10.013578100 _0_ MAC  --- 0 raw 1468 [0 ffffffff 1 800] ------- [0:0 0:0 0 0] raw 
s 10.101090000 _1_ MAC  --- 0 raw 1526 [0 ffffffff 1 800] ------- [0:0 0:0 0 0] raw 
r 10.113298100 _0_ MAC  --- 0 raw 1468 [0 ffffffff 1 800] ------- [0:0 0:0 0 0] raw 
s 10.201410000 _1_ MAC  --- 0 raw 1526 [0 ffffffff 1 800] ------- [0:0 0:0 0 0] raw 
s 10.301210000 _1_ MAC  --- 0 raw 1526 [0 ffffffff 1 800] ------- [0:0 0:0 0 0] raw 
r 10.313418100 _0_ MAC  --- 0 raw 1468 [0 ffffffff 1 800] ------- [0:0 0:0 0 0] raw 
s 10.401390000 _1_ MAC  --- 0 raw 1526 [0 ffffffff 1 800] ------- [0:0 0:0 0 0] raw 
r 10.413598100 _0_ MAC  --- 0 raw 1468 [0 ffffffff 1 800] ------- [0:0 0:0 0 0] raw 
s 10.501410000 _1_ MAC  --- 0 raw 1526 [0 ffffffff 1 800] ------- [0:0 0:0 0 0] raw 
r 10.513618100 _0_ MAC  --- 0 raw 1468 [0 ffffffff 1 800] ------- [0:0 0:0 0 0] raw 
s 10.601510000 _1_ MAC  --- 0 raw 1526 [0 ffffffff 1 800] ------- [0:0 0:0 0 0] raw 
r 10.613718100 _0_ MAC  --- 0 raw 1468 [0 ffffffff 1 800] ------- [0:0 0:0 0 0] raw 
s 10.701050000 _1_ MAC  --- 0 raw 1526 [0 ffffffff 1 800] ------- [0:0 0:0 0 0] raw 
r 10.713258100 _0_ MAC  --- 0 raw 1468 [0 ffffffff 1 800] ------- [0:0 0:0 0 0] raw 
s 10.801290000 _1_ MAC  --- 0 raw 1526 [0 ffffffff 1 800] ------- [0:0 0:0 0 0] raw 
r 10.813498100 _0_ MAC  --- 0 raw 1468 [0 ffffffff 1 800] ------- [0:0 0:0 0 0] raw 
s 10.901450000 _1_ MAC  --- 0 raw 1526 [0 ffffffff 1 800] ------- [0:0 0:0 0 0] raw 
r 10.913658100 _0_ MAC  --- 0 raw 1468 [0 ffffffff 1 800] ------- [0:0 0:0 0 0] raw 
s 11.001070000 _1_ MAC  --- 0 raw 1526 [0 ffffffff 1 800] ------- [0:0 0:0 0 0] raw 
r 11.013278100 _0_ MAC  --- 0 raw 1468 [0 ffffffff 1 800] ------- [0:0 0:0 0 0] raw 
s 11.101430000 _1_ MAC  --- 0 raw 1526 [0 ffffffff 1 800] ------- [0:0 0:0 0 0] raw 
r 11.113638100 _0_ MAC  --- 0 raw 1468 [0 ffffffff 1 800] ------- [0:0 0:0 0 0] raw 
s 11.201650000 _1_ MAC  --- 0 raw 1526 [0 ffffffff 1 800] ------- [0:0 0:0 0 0] raw 
r 11.213858100 _0_ MAC  --- 0 raw 1468 [0 ffffffff 1 800] ------- [0:0 0:0 0 0] raw 
s 11.301210000 _1_ MAC  --- 0 raw 1526 [0 ffffffff 1 800] ------- [0:0 0:0 0 0] raw 
r 11.313418100 _0_ MAC  --- 0 raw 1468 [0 ffffffff 1 800] ------- [0:0 0:0 0 0] raw 
s 11.401570000 _1_ MAC  --- 0 raw 1526 [0 ffffffff 1 800] ------- [0:0 0:0 0 0] raw 
r 11.413778100 _0_ MAC  --- 0 raw 1468 [0 ffffffff 1 800] ------- [0:0 0:0 0 0] raw 
s 11.501470000 _1_ MAC  --- 0 raw 1526 [0 ffffffff 1 800] ------- [0:0 0:0 0 0] raw 
r 11.513678100 _0_ MAC  --- 0 raw 1468 [0 ffffffff 1 800] ------- [0:0 0:0 0 0] raw 
s 11.601270000 _1_ MAC  --- 0 raw 1526 [0 ffffffff 1 800] ------- [0:0 0:0 0 0] raw 
r 11.613478100 _0_ MAC  --- 0 raw 1468 [0 ffffffff 1 800] ------- [0:0 0:0 0 0] raw 
s 11.701270000 _1_ MAC  --- 0 raw 1526 [0 ffffffff 1 800] ------- [0:0 0:0 0 0] raw 
r 11.713478100 _0_ MAC  --- 0 raw 1468 [0 ffffffff 1 800] ------- [0:0 0:0 0 0] raw 
s 11.801490000 _1_ MAC  --- 0 raw 1526 [0 ffffffff 1 800] ------- [0:0 0:0 0 0] raw 
r 11.813698100 _0_ MAC  --- 0 raw 1468 [0 ffffffff 1 800] ------- [0:0 0:0 0 0] raw 
s 11.901610000 _1_ MAC  --- 0 raw 1526 [0 ffffffff 1 800] ------- [0:0 0:0 0 0] raw 
r 11.913818100 _0_ MAC  --- 0 raw 1468 [0 ffffffff 1 800] ------- [0:0 0:0 0 0] raw 
s 12.001290000 _1_ MAC  --- 0 raw 1526 [0 ffffffff 1 800] ------- [0:0 0:0 0 0] raw 
r 12.013498100 _0_ MAC  --- 0 raw 1468 [0 ffffffff 1 800] ------- [0:0 0:0 0 0] raw 
s 12.101330000 _1_ MAC  --- 0 raw 1526 [0 ffffffff 1 800] ------- [0:0 0:0 0 0] raw 
r 12.113538100 _0_ MAC  --- 0 raw 1468 [0 ffffffff 1 800] ------- [0:0 0:0 0 0] raw 
s 12.201470000 _1_ MAC  --- 0 raw 1526 [0 ffffffff 1 800] ------- [0:0 0:0 0 0] raw 
r 12.213678100 _0_ MAC  --- 0 raw 1468 [0 ffffffff 1 800] ------- [0:0 0:0 0 0] raw 
s 12.301490000 _1_ MAC  --- 0 raw 1526 [0 ffffffff 1 800] ------- [0:0 0:0 0 0] raw 
r 12.313698100 _0_ MAC  --- 0 raw 1468 [0 ffffffff 1 800] ------- [0:0 0:0 0 0] raw 
s 12.401510000 _1_ MAC  --- 0 raw 1526 [0 ffffffff 1 800] ------- [0:0 0:0 0 0] raw 
s 12.501590000 _1_ MAC  --- 0 raw 1526 [0 ffffffff 1 800] ------- [0:0 0:0 0 0] raw 
r 12.513798100 _0_ MAC  --- 0 raw 1468 [0 ffffffff 1 800] ------- [0:0 0:0 0 0] raw 
s 12.601610000 _1_ MAC  --- 0 raw 1526 [0 ffffffff 1 800] ------- [0:0 0:0 0 0] raw 
r 12.613818100 _0_ MAC  --- 0 raw 1468 [0 ffffffff 1 800] ------- [0:0 0:0 0 0] raw 
s 12.701270000 _1_ MAC  --- 0 raw 1526 [0 ffffffff 1 800] ------- [0:0 0:0 0 0] raw 
r 12.713478100 _0_ MAC  --- 0 raw 1468 [0 ffffffff 1 800] ------- [0:0 0:0 0 0] raw 
s 12.801450000 _1_ MAC  --- 0 raw 1526 [0 ffffffff 1 800] ------- [0:0 0:0 0 0] raw 
r 12.813658100 _0_ MAC  --- 0 raw 1468 [0 ffffffff 1 800] ------- [0:0 0:0 0 0] raw 
s 12.901050000 _1_ MAC  --- 0 raw 1526 [0 ffffffff 1 800] ------- [0:0 0:0 0 0] raw 
r 12.913258100 _0_ MAC  --- 0 raw 1468 [0 ffffffff 1 800] ------- [0:0 0:0 0 0] raw 
s 13.001230000 _1_ MAC  --- 0 raw 1526 [0 ffffffff 1 800] ------- [0:0 0:0 0 0] raw 
r 13.013438100 _0_ MAC  --- 0 raw 1468 [0 ffffffff 1 800] ------- [0:0 0:0 0 0] raw 
s 13.101070000 _1_ MAC  --- 0 raw 1526 [0 ffffffff 1 800] ------- [0:0 0:0 0 0] raw 
r 13.113278100 _0_ MAC  --- 0 raw 1468 [0 ffffffff 1 800] ------- [0:0 0:0 0 0] raw 
s 13.201170000 _1_ MAC  --- 0 raw 1526 [0 ffffffff 1 800] ------- [0:0 0:0 0 0] raw 
r 13.213378100 _0_ MAC  --- 0 raw 1468 [0 ffffffff 1 800] ------- [0:0 0:0 0 0] raw 
s 13.301190000 _1_ MAC  --- 0 raw 1526 [0 ffffffff 1 800] ------- [0:0 0:0 0 0] raw 
r 13.313398100 _0_ MAC  --- 0 raw 1468 [0 ffffffff 1 800] ------- [0:0 0:0 0 0] raw 
s 13.401250000 _1_ MAC  --- 0 raw 1526 [0 ffffffff 1 800] ------- [0:0 0:0 0 0] raw 
r 13.413458100 _0_ MAC  --- 0 raw 1468 [0 ffffffff 1 800] ------- [0:0 0:0 0 0] raw 
s 13.501190000 _1_ MAC  --- 0 raw 1526 [0 ffffffff 1 800] ------- [0:0 0:0 0 0] raw 
r 13.513398100 _0_ MAC  --- 0 raw 1468 [0 ffffffff 1 800] ------- [0:0 0:0 0 0] raw 
s 13.601610000 _1_ MAC  --- 0 raw 1526 [0 ffffffff 1 800] ------- [0:0 0:0 0 0] raw 
r 13.613818100 _0_ MAC  --- 0 raw 1468 [0 ffffffff 1 800] ------- [0:0 0:0 0 0] raw 
s 13.701430000 _1_ MAC  --- 0 raw 1526 [0 ffffffff 1 800] ------- [0:0 0:0 0 0] raw 
r 13.713638100 _0_ MAC  --- 0 raw 1468 [0 ffffffff 1 800] ------- [0:0 0:0 0 0] raw 
s 13.801470000 _1_ MAC  --- 0 raw 1526 [0 ffffffff 1 800] ------- [0:0 0:0 0 0] raw 
r 13.813678100 _0_ MAC  --- 0 raw 1468 [0 ffffffff 1 800] ------- [0:0 0:0 0 0] raw 
s 13.901310000 _1_ MAC  --- 0 raw 1526 [0 ffffffff 1 800] ------- [0:0 0:0 0 0] raw 
r 13.913518100 _0_ MAC  --- 0 raw 1468 [0 ffffffff 1 800] ------- [0:0 0:0 0 0] raw 
s 14.001250000 _1_ MAC  --- 0 raw 1526 [0 ffffffff 1 800] ------- [0:0 0:0 0 0] raw 
r 14.013458100 _0_ MAC  --- 0 raw 1468 [0 ffffffff 1 800] ------- [0:0 0:0 0 0] raw 
s 14.101390000 _1_ MAC  --- 0 raw 1526 [0 ffffffff 1 800] ------- [0:0 0:0 0 0] raw 
r 14.113598100 _0_ MAC  --- 0 raw 1468 [0 ffffffff 1 800] ------- [0:0 0:0 0 0] raw 
s 14.201330000 _1_ MAC  --- 0 raw 1526 [0 ffffffff 1 800] ------- [0:0 0:0 0 0] raw 
r 14.213538100 _0_ MAC  --- 0 raw 1468 [0 ffffffff 1 800] ------- [0:0 0:0 0 0] raw 
s 14.301570000 _1_ MAC  --- 0 raw 1526 [0 ffffffff 1 800] ------- [0:0 0:0 0 0] raw 
r 14.313778100 _0_ MAC  --- 0 raw 1468 [0 ffffffff 1 800] ------- [0:0 0:0 0 0] raw 
s 14.401610000 _1_ MAC  --- 0 raw 1526 [0 ffffffff 1 800] ------- [0:0 0:0 0 0] raw 
r 14.413818100 _0_ MAC  --- 0 raw 1468 [0 ffffffff 1 800] ------- [0:0 0:0 0 0] raw 
s 14.501150000 _1_ MAC  --- 0 raw 1526 [0 ffffffff 1 800] ------- [0:0 0:0 0 0] raw 
r 14.513358100 _0_ MAC  --- 0 raw 1468 [0 ffffffff 1 800] ------- [0:0 0:0 0 0] raw 
s 14.601190000 _1_ MAC  --- 0 raw 1526 [0 ffffffff 1 800] ------- [0:0 0:0 0 0] raw 
r 14.613398100 _0_ MAC  --- 0 raw 1468 [0 ffffffff 1 800] ------- [0:0 0:0 0 0] raw 
s 14.701390000 _1_ MAC  --- 0 raw 1526 [0 ffffffff 1 800] ------- [0:0 0:0 0 0] raw 
r 14.713598100 _0_ MAC  --- 0 raw 1468 [0 ffffffff 1 800] ------- [0:0 0:0 0 0] raw 
s 14.801290000 _1_ MAC  --- 0 raw 1526 [0 ffffffff 1 800] ------- [0:0 0:0 0 0] raw 
r 14.813498100 _0_ MAC  --- 0 raw 1468 [0 ffffffff 1 800] ------- [0:0 0:0 0 0] raw 
s 14.901470000 _1_ MAC  --- 0 raw 1526 [0 ffffffff 1 800] ------- [0:0 0:0 0 0] raw 
r 14.913678100 _0_ MAC  --- 0 raw 1468 [0 ffffffff 1 800] ------- [0:0 0:0 0 0] raw 
s 15.001290000 _1_ MAC  --- 0 raw 1526 [0 ffffffff 1 800] ------- [0:0 0:0 0 0] raw 
r 15.013498100 _0_ MAC  --- 0 raw 1468 [0 ffffffff 1 800] ------- [0:0 0:0 0 0] raw 
s 15.101090000 _1_ MAC  --- 0 raw 1526 [0 ffffffff 1 800] ------- [0:0 0:0 0 0] raw 
r 15.113298100 _0_ MAC  --- 0 raw 1468 [0 ffffffff 1 800] ------- [0:0 0:0 0 0] raw 
s 15.201050000 _1_ MAC  --- 0 raw 1526 [0 ffffffff 1 800] ------- [0:0 0:0 0 0] raw 
r 15.213258100 _0_ MAC  --- 0 raw 1468 [0 ffffffff 1 800] ------- [0:0 0:0 0 0] raw 
s 15.301570000 _1_ MAC  --- 0 raw 1526 [0 ffffffff 1 800] ------- [0:0 0:0 0 0] raw 
r 15.313778100 _0_ MAC  --- 0 raw 1468 [0 ffffffff 1 800] ------- [0:0 0:0 0 0] raw 
s 15.401390000 _1_ MAC  --- 0 raw 1526 [0 ffffffff 1 800] ------- [0:0 0:0 0 0] raw 
s 15.501050000 _1_ MAC  --- 0 raw 1526 [0 ffffffff 1 800] ------- [0:0 0:0 0 0] raw 
r 15.513258100 _0_ MAC  --- 0 raw 1468 [0 ffffffff 1 800] ------- [0:0 0:0 0 0] raw 
s 15.601370000 _1_ MAC  --- 0 raw 1526 [0 ffffffff 1 800] ------- [0:0 0:0 0 0] raw 
r 15.613578100 _0_ MAC  --- 0 raw 1468 [0 ffffffff 1 800] ------- [0:0 0:0 0 0] raw 
s 15.701630000 _1_ MAC  --- 0 raw 1526 [0 ffffffff 1 800] ------- [0:0 0:0 0 0] raw 
r 15.713838100 _0_ MAC  --- 0 raw 1468 [0 ffffffff 1 800] ------- [0:0 0:0 0 0] raw 
s 15.801070000 _1_ MAC  --- 0 raw 1526 [0 ffffffff 1 800] ------- [0:0 0:0 0 0] raw 
r 15.813278100 _0_ MAC  --- 0 raw 1468 [0 ffffffff 1 800] ------- [0:0 0:0 0 0] raw 
s 15.901430000 _1_ MAC  --- 0 raw 1526 [0 ffffffff 1 800] ------- [0:0 0:0 0 0] raw 
r 15.913638100 _0_ MAC  --- 0 raw 1468 [0 ffffffff 1 800] ------- [0:0 0:0 0 0] raw 
s 16.001630000 _1_ MAC  --- 0 raw 1526 [0 ffffffff 1 800] ------- [0:0 0:0 0 0] raw 
r 16.013838100 _0_ MAC  --- 0 raw 1468 [0 ffffffff 1 800] ------- [0:0 0:0 0 0] raw 
s 16.101290000 _1_ MAC  --- 0 raw 1526 [0 ffffffff 1 800] ------- [0:0 0:0 0 0] raw 
r 16.113498100 _0_ MAC  --- 0 raw 1468 [0 ffffffff 1 800] ------- [0:0 0:0 0 0] raw 
s 16.201490000 _1_ MAC  --- 0 raw 1526 [0 ffffffff 1 800] ------- [0:0 0:0 0 0] raw 
r 16.213698100 _0_ MAC  --- 0 raw 1468 [0 ffffffff 1 800] ------- [0:0 0:0 0 0] raw 
s 16.301430000 _1_ MAC  --- 0 raw 1526 [0 ffffffff 1 800] ------- [0:0 0:0 0 0] raw 
r 16.313638100 _0_ MAC  --- 0 raw 1468 [0 ffffffff 1 800] ------- [0:0 0:0 0 0] raw 
s 16.401190000 _1_ MAC  --- 0 raw 1526 [0 ffffffff 1 800] ------- [0:0 0:0 0 0] raw 
r 16.413398100 _0_ MAC  --- 0 raw 1468 [0 ffffffff 1 800] ------- [0:0 0:0 0 0] raw 
s 16.501090000 _1_ MAC  --- 0 raw 1526 [0 ffffffff 1 800] ------- [0:0 0:0 0 0] raw 
r 16.513298100 _0_ MAC  --- 0 raw 1468 [0 ffffffff 1 800] ------- [0:0 0:0 0 0] raw 
s 16.601490000 _1_ MAC  --- 0 raw 1526 [0 ffffffff 1 800] ------- [0:0 0:0 0 0] raw 
r 16.613698100 _0_ MAC  --- 0 raw 1468 [0 ffffffff 1 800] ------- [0:0 0:0 0 0] raw 
s 16.701190000 _1_ MAC  --- 0 raw 1526 [0 ffffffff 1 800] ------- [0:0 0:0 0 0] raw 
r 16.713398100 _0_ MAC  --- 0 raw 1468 [0 ffffffff 1 800] ------- [0:0 0:0 0 0] raw 
s 16.801430000 _1_ MAC  --- 0 raw 1526 [0 ffffffff 1 800] ------- [0:0 0:0 0 0] raw 
r 16.813638100 _0_ MAC  --- 0 raw 1468 [0 ffffffff 1 800] ------- [0:0 0:0 0 0] raw 
s 16.901050000 _1_ MAC  --- 0 raw 1526 [0 ffffffff 1 800] ------- [0:0 0:0 0 0] raw 
r 16.913258100 _0_ MAC  --- 0 raw 1468 [0 ffffffff 1 800] ------- [0:0 0:0 0 0] raw 
s 17.001050000 _1_ MAC  --- 0 raw 1526 [0 ffffffff 1 800] ------- [0:0 0:0 0 0] raw 
r 17.013258100 _0_ MAC  --- 0 raw 1468 [0 ffffffff 1 800] ------- [0:0 0:0 0 0] raw 
s 17.101450000 _1_ MAC  --- 0 raw 1526 [0 ffffffff 1 800] ------- [0:0 0:0 0 0] raw 
r 17.113658100 _0_ MAC  --- 0 raw 1468 [0 ffffffff 1 800] ------- [0:0 0:0 0 0] raw 
s 17.201270000 _1_ MAC  --- 0 raw 1526 [0 ffffffff 1 800] ------- [0:0 0:0 0 0] raw 
r 17.213478100 _0_ MAC  --- 0 raw 1468 [0 ffffffff 1 800] ------- [0:0 0:0 0 0] raw 
s 17.301250000 _1_ MAC  --- 0 raw 1526 [0 ffffffff 1 800] ------- [0:0 0:0 0 0] raw 
r 17.313458100 _0_ MAC  --- 0 raw 1468 [0 ffffffff 1 800] ------- [0:0 0:0 0 0] raw 
s 17.401230000 _1_ MAC  --- 0 raw 1526 [0 ffffffff 1 800] ------- [0:0 0:0 0 0] raw 
r 17.413438100 _0_ MAC  --- 0 raw 1468 [0 ffffffff 1 800] ------- [0:0 0:0 0 0] raw 
s 17.501130000 _1_ MAC  --- 0 raw 1526 [0 ffffffff 1 800] ------- [0:0 0:0 0 0] raw 
r 17.513338100 _0_ MAC  --- 0 raw 1468 [0 ffffffff 1 800] ------- [0:0 0:0 0 0] raw 
s 17.601050000 _1_ MAC  --- 0 raw 1526 [0 ffffffff 1 800] ------- [0:0 0:0 0 0] raw 
r 17.613258100 _0_ MAC  --- 0 raw 1468 [0 ffffffff 1 800] ------- [0:0 0:0 0 0] raw 
s 17.701430000 _1_ MAC  --- 0 raw 1526 [0 ffffffff 1 800] ------- [0:0 0:0 0 0] raw 
r 17.713638100 _0_ MAC  --- 0 raw 1468 [0 ffffffff 1 800] ------- [0:0 0:0 0 0] raw 
s 17.801170000 _1_ MAC  --- 0 raw 1526 [0 ffffffff 1 800] ------- [0:0 0:0 0 0] raw 
r 17.813378100 _0_ MAC  --- 0 raw 1468 [0 ffffffff 1 800] ------- [0:0 0:0 0 0] raw 
s 17.901330000 _1_ MAC  --- 0 raw 1526 [0 ffffffff 1 800] ------- [0:0 0:0 0 0] raw 
r 17.913538100 _0_ MAC  --- 0 raw 1468 [0 ffffffff 1 800] ------- [0:0 0:0 0 0] raw 
s 18.001650000 _1_ MAC  --- 0 raw 1526 [0 ffffffff 1 800] ------- [0:0 0:0 0 0] raw 