n -t 0 -s 0 -S DLABEL -l "wgt79.eth0" -L ""
n -t 0 -s 1 -S DLABEL -l "wgt44.eth0" -L ""
n -t * -s 0  -x 0 -y 15 -Z 0 -z 20  -v circle -c black
n -t * -s 1  -x 30 -y 15 -Z 0 -z 20  -v circle -c black
V -t * -v 1.0a5 -a 0
W -t * -x 80 -y 65
A -t * -n 1 -p 0 -o 0xffffffff -c 31 -a 1
A -t * -h 1 -m 2147483647 -s 0
+ -t 0.101510000 -s 1 -d 0 -p raw -e 1526 -c 2 -a 0 -i 0 -k MAC 
- -t 0.101510000 -s 1 -d 0 -p raw -e 1526 -c 2 -a 0 -i 0 -k MAC
h -t 0.101510000 -s 1 -d 0 -p raw -e 1526 -c 2 -a 0 -i 0 -k MAC
r -t 0.113718100 -s 0 -d 0 -p raw -e 1468 -c 2 -a 0 -i 0 -k MAC
+ -t 0.201610000 -s 1 -d 0 -p raw -e 1526 -c 2 -a 0 -i 0 -k MAC 
- -t 0.201610000 -s 1 -d 0 -p raw -e 1526 -c 2 -a 0 -i 0 -k MAC
h -t 0.201610000 -s 1 -d 0 -p raw -e 1526 -c 2 -a 0 -i 0 -k MAC
r -t 0.213818100 -s 0 -d 0 -p raw -e 1468 -c 2 -a 0 -i 0 -k MAC
+ -t 0.301370000 -s 1 -d 0 -p raw -e 1526 -c 2 -a 0 -i 0 -k MAC 
- -t 0.301370000 -s 1 -d 0 -p raw -e 1526 -c 2 -a 0 -i 0 -k MAC
h -t 0.301370000 -s 1 -d 0 -p raw -e 1526 -c 2 -a 0 -i 0 -k MAC
r -t 0.313578100 -s 0 -d 0 -p raw -e 1468 -c 2 -a 0 -i 0 -k MAC
+ -t 0.401210000 -s 1 -d 0 -p raw -e 1526 -c 2 -a 0 -i 0 -k MAC 
- -t 0.401210000 -s 1 -d 0 -p raw -e 1526 -c 2 -a 0 -i 0 -k MAC
h -t 0.401210000 -s 1 -d 0 -p raw -e 1526 -c 2 -a 0 -i 0 -k MAC
r -t 0.413418100 -s 0 -d 0 -p raw -e 1468 -c 2 -a 0 -i 0 -k MAC
+ -t 0.501290000 -s 1 -d 0 -p raw -e 1526 -c 2 -a 0 -i 0 -k MAC 
- -t 0.501290000 -s 1 -d 0 -p raw -e 1526 -c 2 -a 0 -i 0 -k MAC
h -t 0.501290000 -s 1 -d 0 -p raw -e 1526 -c 2 -a 0 -i 0 -k MAC
r -t 0.513498100 -s 0 -d 0 -p raw -e 1468 -c 2 -a 0 -i 0 -k MAC
+ -t 0.601310000 -s 1 -d 0 -p raw -e 1526 -c 2 -a 0 -i 0 -k MAC 
- -t 0.601310000 -s 1 -d 0 -p raw -e 1526 -c 2 -a 0 -i 0 -k MAC
h -t 0.601310000 -s 1 -d 0 -p raw -e 1526 -c 2 -a 0 -i 0 -k MAC
r -t 0.613518100 -s 0 -d 0 -p raw -e 1468 -c 2 -a 0 -i 0 -k MAC
+ -t 0.701090000 -s 1 -d 0 -p raw -e 1526 -c 2 -a 0 -i 0 -k MAC 
- -t 0.701090000 -s 1 -d 0 -p raw -e 1526 -c 2 -a 0 -i 0 -k MAC
h -t 0.701090000 -s 1 -d 0 -p raw -e 1526 -c 2 -a 0 -i 0 -k MAC
r -t 0.713298100 -s 0 -d 0 -p raw -e 1468 -c 2 -a 0 -i 0 -k MAC
+ -t 0.801210000 -s 1 -d 0 -p raw -e 1526 -c 2 -a 0 -i 0 -k MAC 
- -t 0.801210000 -s 1 -d 0 -p raw -e 1526 -c 2 -a 0 -i 0 -k MAC
h -t 0.801210000 -s 1 -d 0 -p raw -e 1526 -c 2 -a 0 -i 0 -k MAC
r -t 0.813418100 -s 0 -d 0 -p raw -e 1468 -c 2 -a 0 -i 0 -k MAC
+ -t 0.901290000 -s 1 -d 0 -p raw -e 1526 -c 2 -a 0 -i 0 -k MAC 
- -t 0.901290000 -s 1 -d 0 -p raw -e 1526 -c 2 -a 0 -i 0 -k MAC
h -t 0.901290000 -s 1 -d 0 -p raw -e 1526 -c 2 -a 0 -i 0 -k MAC
r -t 0.913498100 -s 0 -d 0 -p raw -e 1468 -c 2 -a 0 -i 0 -k MAC
+ -t 1.001530000 -s 1 -d 0 -p raw -e 1526 -c 2 -a 0 -i 0 -k MAC 
- -t 1.001530000 -s 1 -d 0 -p raw -e 1526 -c 2 -a 0 -i 0 -k MAC
h -t 1.001530000 -s 1 -d 0 -p raw -e 1526 -c 2 -a 0 -i 0 -k MAC
r -t 1.013738100 -s 0 -d 0 -p raw -e 1468 -c 2 -a 0 -i 0 -k MAC
+ -t 1.101370000 -s 1 -d 0 -p raw -e 1526 -c 2 -a 0 -i 0 -k MAC 
- -t 1.101370000 -s 1 -d 0 -p raw -e 1526 -c 2 -a 0 -i 0 -k MAC
h -t 1.101370000 -s 1 -d 0 -p raw -e 1526 -c 2 -a 0 -i 0 -k MAC
r -t 1.113578100 -s 0 -d 0 -p raw -e 1468 -c 2 -a 0 -i 0 -k MAC
+ -t 1.201270000 -s 1 -d 0 -p raw -e 1526 -c 2 -a 0 -i 0 -k MAC 
- -t 1.201270000 -s 1 -d 0 -p raw -e 1526 -c 2 -a 0 -i 0 -k MAC
h -t 1.201270000 -s 1 -d 0 -p raw -e 1526 -c 2 -a 0 -i 0 -k MAC
r -t 1.213478100 -s 0 -d 0 -p raw -e 1468 -c 2 -a 0 -i 0 -k MAC
+ -t 1.301290000 -s 1 -d 0 -p raw -e 1526 -c 2 -a 0 -i 0 -k MAC 
- -t 1.301290000 -s 1 -d 0 -p raw -e 1526 -c 2 -a 0 -i 0 -k MAC
h -t 1.301290000 -s 1 -d 0 -p raw -e 1526 -c 2 -a 0 -i 0 -k MAC
r -t 1.313498100 -s 0 -d 0 -p raw -e 1468 -c 2 -a 0 -i 0 -k MAC
+ -t 1.401230000 -s 1 -d 0 -p raw -e 1526 -c 2 -a 0 -i 0 -k MAC 
- -t 1.401230000 -s 1 -d 0 -p raw -e 1526 -c 2 -a 0 -i 0 -k MAC
h -t 1.401230000 -s 1 -d 0 -p raw -e 1526 -c 2 -a 0 -i 0 -k MAC
r -t 1.413438100 -s 0 -d 0 -p raw -e 1468 -c 2 -a 0 -i 0 -k MAC
+ -t 1.501450000 -s 1 -d 0 -p raw -e 1526 -c 2 -a 0 -i 0 -k MAC 
- -t 1.501450000 -s 1 -d 0 -p raw -e 1526 -c 2 -a 0 -i 0 -k MAC
h -t 1.501450000 -s 1 -d 0 -p raw -e 1526 -c 2 -a 0 -i 0 -k MAC
r -t 1.513658100 -s 0 -d 0 -p raw -e 1468 -c 2 -a 0 -i 0 -k MAC
+ -t 1.601410000 -s 1 -d 0 -p raw -e 1526 -c 2 -a 0 -i 0 -k MAC 
- -t 1.601410000 -s 1 -d 0 -p raw -e 1526 -c 2 -a 0 -i 0 -k MAC
h -t 1.601410000 -s 1 -d 0 -p raw -e 1526 -c 2 -a 0 -i 0 -k MAC
r -t 1.613618100 -s 0 -d 0 -p raw -e 1468 -c 2 -a 0 -i 0 -k MAC
+ -t 1.701350000 -s 1 -d 0 -p raw -e 1526 -c 2 -a 0 -i 0 -k MAC 
- -t 1.701350000 -s 1 -d 0 -p raw -e 1526 -c 2 -a 0 -i 0 -k MAC
h -t 1.701350000 -s 1 -d 0 -p raw -e 1526 -c 2 -a 0 -i 0 -k MAC
r -t 1.713558100 -s 0 -d 0 -p raw -e 1468 -c 2 -a 0 -i 0 -k MAC
+ -t 1.801190000 -s 1 -d 0 -p raw -e 1526 -c 2 -a 0 -i 0 -k MAC 
- -t 1.801190000 -s 1 -d 0 -p raw -e 1526 -c 2 -a 0 -i 0 -k MAC
h -t 1.801190000 -s 1 -d 0 -p raw -e 1526 -c 2 -a 0 -i 0 -k MAC
r -t 1.813398100 -s 0 -d 0 -p raw -e 1468 -c 2 -a 0 -i 0 -k MAC
+ -t 1.901330000 -s 1 -d 0 -p raw -e 1526 -c 2 -a 0 -i 0 -k MAC 
- -t 1.901330000 -s 1 -d 0 -p raw -e 1526 -c 2 -a 0 -i 0 -k MAC
h -t 1.901330000 -s 1 -d 0 -p raw -e 1526 -c 2 -a 0 -i 0 -k MAC
r -t 1.913538100 -s 0 -d 0 -p raw -e 1468 -c 2 -a 0 -i 0 -k MAC
+ -t 2.001150000 -s 1 -d 0 -p raw -e 1526 -c 2 -a 0 -i 0 -k MAC 
- -t 2.001150000 -s 1 -d 0 -p raw -e 1526 -c 2 -a 0 -i 0 -k MAC
h -t 2.001150000 -s 1 -d 0 -p raw -e 1526 -c 2 -a 0 -i 0 -k MAC
r -t 2.013358100 -s 0 -d 0 -p raw -e 1468 -c 2 -a 0 -i 0 -k MAC
+ -t 2.101270000 -s 1 -d 0 -p raw -e 1526 -c 2 -a 0 -i 0 -k MAC 
- -t 2.101270000 -s 1 -d 0 -p raw -e 1526 -c 2 -a 0 -i 0 -k MAC
h -t 2.101270000 -s 1 -d 0 -p raw -e 1526 -c 2 -a 0 -i 0 -k MAC
+ -t 2.201630000 -s 1 -d 0 -p raw -e 1526 -c 2 -a 0 -i 0 -k MAC 
- -t 2.201630000 -s 1 -d 0 -p raw -e 1526 -c 2 -a 0 -i 0 -k MAC
h -t 2.201630000 -s 1 -d 0 -p raw -e 1526 -c 2 -a 0 -i 0 -k MAC
r -t 2.213838100 -s 0 -d 0 -p raw -e 1468 -c 2 -a 0 -i 0 -k MAC
+ -t 2.301170000 -s 1 -d 0 -p raw -e 1526 -c 2 -a 0 -i 0 -k MAC 
- -t 2.301170000 -s 1 -d 0 -p raw -e 1526 -c 2 -a 0 -i 0 -k MAC
h -t 2.301170000 -s 1 -d 0 -p raw -e 1526 -c 2 -a 0 -i 0 -k MAC
r -t 2.313378100 -s 0 -d 0 -p raw -e 1468 -c 2 -a 0 -i 0 -k MAC
+ -t 2.401550000 -s 1 -d 0 -p raw -e 1526 -c 2 -a 0 -i 0 -k MAC 
- -t 2.401550000 -s 1 -d 0 -p raw -e 1526 -c 2 -a 0 -i 0 -k MAC
h -t 2.401550000 -s 1 -d 0 -p raw -e 1526 -c 2 -a 0 -i 0 -k MAC
r -t 2.413758100 -s 0 -d 0 -p raw -e 1468 -c 2 -a 0 -i 0 -k MAC
+ -t 2.501230000 -s 1 -d 0 -p raw -e 1526 -c 2 -a 0 -i 0 -k MAC 
- -t 2.501230000 -s 1 -d 0 -p raw -e 1526 -c 2 -a 0 -i 0 -k MAC
h -t 2.501230000 -s 1 -d 0 -p raw -e 1526 -c 2 -a 0 -i 0 -k MAC
r -t 2.513438100 -s 0 -d 0 -p raw -e 1468 -c 2 -a 0 -i 0 -k MAC
+ -t 2.601530000 -s 1 -d 0 -p raw -e 1526 -c 2 -a 0 -i 0 -k MAC 
- -t 2.601530000 -s 1 -d 0 -p raw -e 1526 -c 2 -a 0 -i 0 -k MAC
h -t 2.601530000 -s 1 -d 0 -p raw -e 1526 -c 2 -a 0 -i 0 -k MAC
r -t 2.613738100 -s 0 -d 0 -p raw -e 1468 -c 2 -a 0 -i 0 -k MAC
+ -t 2.701270000 -s 1 -d 0 -p raw -e 1526 -c 2 -a 0 -i 0 -k MAC 
- -t 2.701270000 -s 1 -d 0 -p raw -e 1526 -c 2 -a 0 -i 0 -k MAC
h -t 2.701270000 -s 1 -d 0 -p raw -e 1526 -c 2 -a 0 -i 0 -k MAC
r -t 2.713478100 -s 0 -d 0 -p raw -e 1468 -c 2 -a 0 -i 0 -k MAC
+ -t 2.801210000 -s 1 -d 0 -p raw -e 1526 -c 2 -a 0 -i 0 -k MAC 
- -t 2.801210000 -s 1 -d 0 -p raw -e 1526 -c 2 -a 0 -i 0 -k MAC
h -t 2.801210000 -s 1 -d 0 -p raw -e 1526 -c 2 -a 0 -i 0 -k MAC
r -t 2.813418100 -s 0 -d 0 -p raw -e 1468 -c 2 -a 0 -i 0 -k MAC
+ -t 2.901130000 -s 1 -d 0 -p raw -e 1526 -c 2 -a 0 -i 0 -k MAC 
- -t 2.901130000 -s 1 -d 0 -p raw -e 1526 -c 2 -a 0 -i 0 -k MAC
h -t 2.901130000 -s 1 -d 0 -p raw -e 1526 -c 2 -a 0 -i 0 -k MAC
r -t 2.913338100 -s 0 -d 0 -p raw -e 1468 -c 2 -a 0 -i 0 -k MAC
+ -t 3.001050000 -s 1 -d 0 -p raw -e 1526 -c 2 -a 0 -i 0 -k MAC 
- -t 3.001050000 -s 1 -d 0 -p raw -e 1526 -c 2 -a 0 -i 0 -k MAC
h -t 3.001050000 -s 1 -d 0 -p raw -e 1526 -c 2 -a 0 -i 0 -k MAC
r -t 3.013258100 -s 0 -d 0 -p raw -e 1468 -c 2 -a 0 -i 0 -k MAC
+ -t 3.101350000 -s 1 -d 0 -p raw -e 1526 -c 2 -a 0 -i 0 -k MAC 
- -t 3.101350000 -s 1 -d 0 -p raw -e 1526 -c 2 -a 0 -i 0 -k MAC
h -t 3.101350000 -s 1 -d 0 -p raw -e 1526 -c 2 -a 0 -i 0 -k MAC
r -t 3.113558100 -s 0 -d 0 -p raw -e 1468 -c 2 -a 0 -i 0 -k MAC
+ -t 3.201070000 -s 1 -d 0 -p raw -e 1526 -c 2 -a 0 -i 0 -k MAC 
- -t 3.201070000 -s 1 -d 0 -p raw -e 1526 -c 2 -a 0 -i 0 -k MAC
h -t 3.201070000 -s 1 -d 0 -p raw -e 1526 -c 2 -a 0 -i 0 -k MAC
r -t 3.213278100 -s 0 -d 0 -p raw -e 1468 -c 2 -a 0 -i 0 -k MAC
+ -t 3.301290000 -s 1 -d 0 -p raw -e 1526 -c 2 -a 0 -i 0 -k MAC 
- -t 3.301290000 -s 1 -d 0 -p raw -e 1526 -c 2 -a 0 -i 0 -k MAC
h -t 3.301290000 -s 1 -d 0 -p raw -e 1526 -c 2 -a 0 -i 0 -k MAC
r -t 3.313498100 -s 0 -d 0 -p raw -e 1468 -c 2 -a 0 -i 0 -k MAC
+ -t 3.401350000 -s 1 -d 0 -p raw -e 1526 -c 2 -a 0 -i 0 -k MAC 
- -t 3.401350000 -s 1 -d 0 -p raw -e 1526 -c 2 -a 0 -i 0 -k MAC
h -t 3.401350000 -s 1 -d 0 -p raw -e 1526 -c 2 -a 0 -i 0 -k MAC
r -t 3.413558100 -s 0 -d 0 -p raw -e 1468 -c 2 -a 0 -i 0 -k MAC
+ -t 3.501510000 -s 1 -d 0 -p raw -e 1526 -c 2 -a 0 -i 0 -k MAC 
- -t 3.501510000 -s 1 -d 0 -p raw -e 1526 -c 2 -a 0 -i 0 -k MAC
h -t 3.501510000 -s 1 -d 0 -p raw -e 1526 -c 2 -a 0 -i 0 -k MAC
r -t 3.513718100 -s 0 -d 0 -p raw -e 1468 -c 2 -a 0 -i 0 -k MAC
+ -t 3.601250000 -s 1 -d 0 -p raw -e 1526 -c 2 -a 0 -i 0 -k MAC 
- -t 3.601250000 -s 1 -d 0 -p raw -e 1526 -c 2 -a 0 -i 0 -k MAC
h -t 3.601250000 -s 1 -d 0 -p raw -e 1526 -c 2 -a 0 -i 0 -k MAC
r -t 3.613458100 -s 0 -d 0 -p raw -e 1468 -c 2 -a 0 -i 0 -k MAC
+ -t 3.701130000 -s 1 -d 0 -p raw -e 1526 -c 2 -a 0 -i 0 -k MAC 
- -t 3.701130000 -s 1 -d 0 -p raw -e 1526 -c 2 -a 0 -i 0 -k MAC
h -t 3.701130000 -s 1 -d 0 -p raw -e 1526 -c 2 -a 0 -i 0 -k MAC
r -t 3.713338100 -s 0 -d 0 -p raw -e 1468 -c 2 -a 0 -i 0 -k MAC
+ -t 3.801250000 -s 1 -d 0 -p raw -e 1526 -c 2 -a 0 -i 0 -k MAC 
- -t 3.801250000 -s 1 -d 0 -p raw -e 1526 -c 2 -a 0 -i 0 -k MAC
h -t 3.801250000 -s 1 -d 0 -p raw -e 1526 -c 2 -a 0 -i 0 -k MAC
r -t 3.813458100 -s 0 -d 0 -p raw -e 1468 -c 2 -a 0 -i 0 -k MAC
+ -t 3.901390000 -s 1 -d 0 -p raw -e 1526 -c 2 -a 0 -i 0 -k MAC 
- -t 3.901390000 -s 1 -d 0 -p raw -e 1526 -c 2 -a 0 -i 0 -k MAC
h -t 3.901390000 -s 1 -d 0 -p raw -e 1526 -c 2 -a 0 -i 0 -k MAC
r -t 3.913598100 -s 0 -d 0 -p raw -e 1468 -c 2 -a 0 -i 0 -k MAC
+ -t 4.001170000 -s 1 -d 0 -p raw -e 1526 -c 2 -a 0 -i 0 -k MAC 
- -t 4.001170000 -s 1 -d 0 -p raw -e 1526 -c 2 -a 0 -i 0 -k MAC
h -t 4.001170000 -s 1 -d 0 -p raw -e 1526 -c 2 -a 0 -i 0 -k MAC
r -t 4.013378100 -s 0 -d 0 -p raw -e 1468 -c 2 -a 0 -i 0 -k MAC
+ -t 4.101630000 -s 1 -d 0 -p raw -e 1526 -c 2 -a 0 -i 0 -k MAC 
- -t 4.101630000 -s 1 -d 0 -p raw -e 1526 -c 2 -a 0 -i 0 -k MAC
h -t 4.101630000 -s 1 -d 0 -p raw -e 1526 -c 2 -a 0 -i 0 -k MAC
r -t 4.113838100 -s 0 -d 0 -p raw -e 1468 -c 2 -a 0 -i 0 -k MAC
+ -t 4.201650000 -s 1 -d 0 -p raw -e 1526 -c 2 -a 0 -i 0 -k MAC 
- -t 4.201650000 -s 1 -d 0 -p raw -e 1526 -c 2 -a 0 -i 0 -k MAC
h -t 4.201650000 -s 1 -d 0 -p raw -e 1526 -c 2 -a 0 -i 0 -k MAC
r -t 4.213858100 -s 0 -d 0 -p raw -e 1468 -c 2 -a 0 -i 0 -k MAC
+ -t 4.301590000 -s 1 -d 0 -p raw -e 1526 -c 2 -a 0 -i 0 -k MAC 
- -t 4.301590000 -s 1 -d 0 -p raw -e 1526 -c 2 -a 0 -i 0 -k MAC
h -t 4.301590000 -s 1 -d 0 -p raw -e 1526 -c 2 -a 0 -i 0 -k MAC
r -t 4.313798100 -s 0 -d 0 -p raw -e 1468 -c 2 -a 0 -i 0 -k MAC
+ -t 4.401350000 -s 1 -d 0 -p raw -e 1526 -c 2 -a 0 -i 0 -k MAC 
- -t 4.401350000 -s 1 -d 0 -p raw -e 1526 -c 2 -a 0 -i 0 -k MAC
h -t 4.401350000 -s 1 -d 0 -p raw -e 1526 -c 2 -a 0 -i 0 -k MAC
r -t 4.413558100 -s 0 -d 0 -p raw -e 1468 -c 2 -a 0 -i 0 -k MAC
+ -t 4.501390000 -s 1 -d 0 -p raw -e 1526 -c 2 -a 0 -i 0 -k MAC 
- -t 4.501390000 -s 1 -d 0 -p raw -e 1526 -c 2 -a 0 -i 0 -k MAC
h -t 4.501390000 -s 1 -d 0 -p raw -e 1526 -c 2 -a 0 -i 0 -k MAC
r -t 4.513598100 -s 0 -d 0 -p raw -e 1468 -c 2 -a 0 -i 0 -k MAC
+ -t 4.601630000 -s 1 -d 0 -p raw -e 1526 -c 2 -a 0 -i 0 -k MAC 
- -t 4.601630000 -s 1 -d 0 -p raw -e 1526 -c 2 -a 0 -i 0 -k MAC
h -t 4.601630000 -s 1 -d 0 -p raw -e 1526 -c 2 -a 0 -i 0 -k MAC
r -t 4.613838100 -s 0 -d 0 -p raw -e 1468 -c 2 -a 0 -i 0 -k MAC
+ -t 4.701230000 -s 1 -d 0 -p raw -e 1526 -c 2 -a 0 -i 0 -k MAC 
- -t 4.701230000 -s 1 -d 0 -p raw -e 1526 -c 2 -a 0 -i 0 -k MAC
h -t 4.701230000 -s 1 -d 0 -p raw -e 1526 -c 2 -a 0 -i 0 -k MAC
r -t 4.713438100 -s 0 -d 0 -p raw -e 1468 -c 2 -a 0 -i 0 -k MAC
+ -t 4.801490000 -s 1 -d 0 -p raw -e 1526 -c 2 -a 0 -i 0 -k MAC 
- -t 4.801490000 -s 1 -d 0 -p raw -e 1526 -c 2 -a 0 -i 0 -k MAC
h -t 4.801490000 -s 1 -d 0 -p raw -e 1526 -c 2 -a 0 -i 0 -k MAC
r -t 4.813698100 -s 0 -d 0 -p raw -e 1468 -c 2 -a 0 -i 0 -k MAC
+ -t 4.901170000 -s 1 -d 0 -p raw -e 1526 -c 2 -a 0 -i 0 -k MAC 
- -t 4.901170000 -s 1 -d 0 -p raw -e 1526 -c 2 -a 0 -i 0 -k MAC
h -t 4.901170000 -s 1 -d 0 -p raw -e 1526 -c 2 -a 0 -i 0 -k MAC
r -t 4.913378100 -s 0 -d 0 -p raw -e 1468 -c 2 -a 0 -i 0 -k MAC
+ -t 5.001270000 -s 1 -d 0 -p raw -e 1526 -c 2 -a 0 -i 0 -k MAC 
- -t 5.001270000 -s 1 -d 0 -p raw -e 1526 -c 2 -a 0 -i 0 -k MAC
h -t 5.001270000 -s 1 -d 0 -p raw -e 1526 -c 2 -a 0 -i 0 -k MAC
r -t 5.013478100 -s 0 -d 0 -p raw -e 1468 -c 2 -a 0 -i 0 -k MAC
+ -t 5.101190000 -s 1 -d 0 -p raw -e 1526 -c 2 -a 0 -i 0 -k MAC 
- -t 5.101190000 -s 1 -d 0 -p raw -e 1526 -c 2 -a 0 -i 0 -k MAC
h -t 5.101190000 -s 1 -d 0 -p raw -e 1526 -c 2 -a 0 -i 0 -k MAC
r -t 5.113398100 -s 0 -d 0 -p raw -e 1468 -c 2 -a 0 -i 0 -k MAC
+ -t 5.201370000 -s 1 -d 0 -p raw -e 1526 -c 2 -a 0 -i 0 -k MAC 
- -t 5.201370000 -s 1 -d 0 -p raw -e 1526 -c 2 -a 0 -i 0 -k MAC
h -t 5.201370000 -s 1 -d 0 -p raw -e 1526 -c 2 -a 0 -i 0 -k MAC
r -t 5.213578100 -s 0 -d 0 -p raw -e 1468 -c 2 -a 0 -i 0 -k MAC
+ -t 5.301550000 -s 1 -d 0 -p raw -e 1526 -c 2 -a 0 -i 0 -k MAC 
- -t 5.301550000 -s 1 -d 0 -p raw -e 1526 -c 2 -a 0 -i 0 -k MAC
h -t 5.301550000 -s 1 -d 0 -p raw -e 1526 -c 2 -a 0 -i 0 -k MAC
r -t 5.313758100 -s 0 -d 0 -p raw -e 1468 -c 2 -a 0 -i 0 -k MAC
+ -t 5.401210000 -s 1 -d 0 -p raw -e 1526 -c 2 -a 0 -i 0 -k MAC 
- -t 5.401210000 -s 1 -d 0 -p raw -e 1526 -c 2 -a 0 -i 0 -k MAC
h -t 5.401210000 -s 1 -d 0 -p raw -e 1526 -c 2 -a 0 -i 0 -k MAC
r -t 5.413418100 -s 0 -d 0 -p raw -e 1468 -c 2 -a 0 -i 0 -k MAC
+ -t 5.501310000 -s 1 -d 0 -p raw -e 1526 -c 2 -a 0 -i 0 -k MAC 
- -t 5.501310000 -s 1 -d 0 -p raw -e 1526 -c 2 -a 0 -i 0 -k MAC
h -t 5.501310000 -s 1 -d 0 -p raw -e 1526 -c 2 -a 0 -i 0 -k MAC
r -t 5.513518100 -s 0 -d 0 -p raw -e 1468 -c 2 -a 0 -i 0 -k MAC
+ -t 5.601050000 -s 1 -d 0 -p raw -e 1526 -c 2 -a 0 -i 0 -k MAC 
- -t 5.601050000 -s 1 -d 0 -p raw -e 1526 -c 2 -a 0 -i 0 -k MAC
h -t 5.601050000 -s 1 -d 0 -p raw -e 1526 -c 2 -a 0 -i 0 -k MAC
r -t 5.613258100 -s 0 -d 0 -p raw -e 1468 -c 2 -a 0 -i 0 -k MAC
+ -t 5.701570000 -s 1 -d 0 -p raw -e 1526 -c 2 -a 0 -i 0 -k MAC 
- -t 5.701570000 -s 1 -d 0 -p raw -e 1526 -c 2 -a 0 -i 0 -k MAC
h -t 5.701570000 -s 1 -d 0 -p raw -e 1526 -c 2 -a 0 -i 0 -k MAC
r -t 5.713778100 -s 0 -d 0 -p raw -e 1468 -c 2 -a 0 -i 0 -k MAC
+ -t 5.801470000 -s 1 -d 0 -p raw -e 1526 -c 2 -a 0 -i 0 -k MAC 
- -t 5.801470000 -s 1 -d 0 -p raw -e 1526 -c 2 -a 0 -i 0 -k MAC
h -t 5.801470000 -s 1 -d 0 -p raw -e 1526 -c 2 -a 0 -i 0 -k MAC
r -t 5.813678100 -s 0 -d 0 -p raw -e 1468 -c 2 -a 0 -i 0 -k MAC
+ -t 5.901070000 -s 1 -d 0 -p raw -e 1526 -c 2 -a 0 -i 0 -k MAC 
- -t 5.901070000 -s 1 -d 0 -p raw -e 1526 -c 2 -a 0 -i 0 -k MAC
h -t 5.901070000 -s 1 -d 0 -p raw -e 1526 -c 2 -a 0 -i 0 -k MAC
r -t 5.913278100 -s 0 -d 0 -p raw -e 1468 -c 2 -a 0 -i 0 -k MAC
+ -t 6.001310000 -s 1 -d 0 -p raw -e 1526 -c 2 -a 0 -i 0 -k MAC 
- -t 6.001310000 -s 1 -d 0 -p raw -e 1526 -c 2 -a 0 -i 0 -k MAC
h -t 6.001310000 -s 1 -d 0 -p raw -e 1526 -c 2 -a 0 -i 0 -k MAC
r -t 6.013518100 -s 0 -d 0 -p raw -e 1468 -c 2 -a 0 -i 0 -k MAC
+ -t 6.101070000 -s 1 -d 0 -p raw -e 1526 -c 2 -a 0 -i 0 -k MAC 
- -t 6.101070000 -s 1 -d 0 -p raw -e 1526 -c 2 -a 0 -i 0 -k MAC
h -t 6.101070000 -s 1 -d 0 -p raw -e 1526 -c 2 -a 0 -i 0 -k MAC
r -t 6.113278100 -s 0 -d 0 -p raw -e 1468 -c 2 -a 0 -i 0 -k MAC
+ -t 6.201490000 -s 1 -d 0 -p raw -e 1526 -c 2 -a 0 -i 0 -k MAC 
- -t 6.201490000 -s 1 -d 0 -p raw -e 1526 -c 2 -a 0 -i 0 -k MAC
h -t 6.201490000 -s 1 -d 0 -p raw -e 1526 -c 2 -a 0 -i 0 -k MAC
r -t 6.213698100 -s 0 -d 0 -p raw -e 1468 -c 2 -a 0 -i 0 -k MAC
+ -t 6.301530000 -s 1 -d 0 -p raw -e 1526 -c 2 -a 0 -i 0 -k MAC 
- -t 6.301530000 -s 1 -d 0 -p raw -e 1526 -c 2 -a 0 -i 0 -k MAC
h -t 6.301530000 -s 1 -d 0 -p raw -e 1526 -c 2 -a 0 -i 0 -k MAC
r -t 6.313738100 -s 0 -d 0 -p raw -e 1468 -c 2 -a 0 -i 0 -k MAC
+ -t 6.401230000 -s 1 -d 0 -p raw -e 1526 -c 2 -a 0 -i 0 -k MAC 
- -t 6.401230000 -s 1 -d 0 -p raw -e 1526 -c 2 -a 0 -i 0 -k MAC
h -t 6.401230000 -s 1 -d 0 -p raw -e 1526 -c 2 -a 0 -i 0 -k MAC
r -t 6.413438100 -s 0 -d 0 -p raw -e 1468 -c 2 -a 0 -i 0 -k MAC
+ -t 6.501230000 -s 1 -d 0 -p raw -e 1526 -c 2 -a 0 -i 0 -k MAC 
- -t 6.501230000 -s 1 -d 0 -p raw -e 1526 -c 2 -a 0 -i 0 -k MAC
h -t 6.501230000 -s 1 -d 0 -p raw -e 1526 -c 2 -a 0 -i 0 -k MAC
r -t 6.513438100 -s 0 -d 0 -p raw -e 1468 -c 2 -a 0 -i 0 -k MAC
+ -t 6.601290000 -s 1 -d 0 -p raw -e 1526 -c 2 -a 0 -i 0 -k MAC 
- -t 6.601290000 -s 1 -d 0 -p raw -e 1526 -c 2 -a 0 -i 0 -k MAC
h -t 6.601290000 -s 1 -d 0 -p raw -e 1526 -c 2 -a 0 -i 0 -k MAC
r -t 6.613498100 -s 0 -d 0 -p raw -e 1468 -c 2 -a 0 -i 0 -k MAC
+ -t 6.701150000 -s 1 -d 0 -p raw -e 1526 -c 2 -a 0 -i 0 -k MAC 
- -t 6.701150000 -s 1 -d 0 -p raw -e 1526 -c 2 -a 0 -i 0 -k MAC
h -t 6.701150000 -s 1 -d 0 -p raw -e 1526 -c 2 -a 0 -i 0 -k MAC
r -t 6.713358100 -s 0 -d 0 -p raw -e 1468 -c 2 -a 0 -i 0 -k MAC
+ -t 6.801590000 -s 1 -d 0 -p raw -e 1526 -c 2 -a 0 -i 0 -k MAC 
- -t 6.801590000 -s 1 -d 0 -p raw -e 1526 -c 2 -a 0 -i 0 -k MAC
h -t 6.801590000 -s 1 -d 0 -p raw -e 1526 -c 2 -a 0 -i 0 -k MAC
r -t 6.813798100 -s 0 -d 0 -p raw -e 1468 -c 2 -a 0 -i 0 -k MAC
+ -t 6.901630000 -s 1 -d 0 -p raw -e 1526 -c 2 -a 0 -i 0 -k MAC 
- -t 6.901630000 -s 1 -d 0 -p raw -e 1526 -c 2 -a 0 -i 0 -k MAC
h -t 6.901630000 -s 1 -d 0 -p raw -e 1526 -c 2 -a 0 -i 0 -k MAC
r -t 6.913838100 -s 0 -d 0 -p raw -e 1468 -c 2 -a 0 -i 0 -k MAC
+ -t 7.001270000 -s 1 -d 0 -p raw -e 1526 -c 2 -a 0 -i 0 -k MAC 
- -t 7.001270000 -s 1 -d 0 -p raw -e 1526 -c 2 -a 0 -i 0 -k MAC
h -t 7.001270000 -s 1 -d 0 -p raw -e 1526 -c 2 -a 0 -i 0 -k MAC
r -t 7.013478100 -s 0 -d 0 -p raw -e 1468 -c 2 -a 0 -i 0 -k MAC
+ -t 7.101190000 -s 1 -d 0 -p raw -e 1526 -c 2 -a 0 -i 0 -k MAC 
- -t 7.101190000 -s 1 -d 0 -p raw -e 1526 -c 2 -a 0 -i 0 -k MAC
h -t 7.101190000 -s 1 -d 0 -p raw -e 1526 -c 2 -a 0 -i 0 -k MAC
r -t 7.113398100 -s 0 -d 0 -p raw -e 1468 -c 2 -a 0 -i 0 -k MAC
+ -t 7.201570000 -s 1 -d 0 -p raw -e 1526 -c 2 -a 0 -i 0 -k MAC 
- -t 7.201570000 -s 1 -d 0 -p raw -e 1526 -c 2 -a 0 -i 0 -k MAC
h -t 7.201570000 -s 1 -d 0 -p raw -e 1526 -c 2 -a 0 -i 0 -k MAC
r -t 7.213778100 -s 0 -d 0 -p raw -e 1468 -c 2 -a 0 -i 0 -k MAC
+ -t 7.301230000 -s 1 -d 0 -p raw -e 1526 -c 2 -a 0 -i 0 -k MAC 
- -t 7.301230000 -s 1 -d 0 -p raw -e 1526 -c 2 -a 0 -i 0 -k MAC
h -t 7.301230000 -s 1 -d 0 -p raw -e 1526 -c 2 -a 0 -i 0 -k MAC
r -t 7.313438100 -s 0 -d 0 -p raw -e 1468 -c 2 -a 0 -i 0 -k MAC
+ -t 7.401430000 -s 1 -d 0 -p raw -e 1526 -c 2 -a 0 -i 0 -k MAC 
- -t 7.401430000 -s 1 -d 0 -p raw -e 1526 -c 2 -a 0 -i 0 -k MAC
h -t 7.401430000 -s 1 -d 0 -p raw -e 1526 -c 2 -a 0 -i 0 -k MAC
r -t 7.413638100 -s 0 -d 0 -p raw -e 1468 -c 2 -a 0 -i 0 -k MAC
+ -t 7.501290000 -s 1 -d 0 -p raw -e 1526 -c 2 -a 0 -i 0 -k MAC 
- -t 7.501290000 -s 1 -d 0 -p raw -e 1526 -c 2 -a 0 -i 0 -k MAC
h -t 7.501290000 -s 1 -d 0 -p raw -e 1526 -c 2 -a 0 -i 0 -k MAC
r -t 7.513498100 -s 0 -d 0 -p raw -e 1468 -c 2 -a 0 -i 0 -k MAC
+ -t 7.601170000 -s 1 -d 0 -p raw -e 1526 -c 2 -a 0 -i 0 -k MAC 
- -t 7.601170000 -s 1 -d 0 -p raw -e 1526 -c 2 -a 0 -i 0 -k MAC
h -t 7.601170000 -s 1 -d 0 -p raw -e 1526 -c 2 -a 0 -i 0 -k MAC
r -t 7.613378100 -s 0 -d 0 -p raw -e 1468 -c 2 -a 0 -i 0 -k MAC
+ -t 7.701210000 -s 1 -d 0 -p raw -e 1526 -c 2 -a 0 -i 0 -k MAC 
- -t 7.701210000 -s 1 -d 0 -p raw -e 1526 -c 2 -a 0 -i 0 -k MAC
h -t 7.701210000 -s 1 -d 0 -p raw -e 1526 -c 2 -a 0 -i 0 -k MAC
r -t 7.713418100 -s 0 -d 0 -p raw -e 1468 -c 2 -a 0 -i 0 -k MAC
+ -t 7.801650000 -s 1 -d 0 -p raw -e 1526 -c 2 -a 0 -i 0 -k MAC 
- -t 7.801650000 -s 1 -d 0 -p raw -e 1526 -c 2 -a 0 -i 0 -k MAC
h -t 7.801650000 -s 1 -d 0 -p raw -e 1526 -c 2 -a 0 -i 0 -k MAC
r -t 7.813858100 -s 0 -d 0 -p raw -e 1468 -c 2 -a 0 -i 0 -k MAC
+ -t 7.901590000 -s 1 -d 0 -p raw -e 1526 -c 2 -a 0 -i 0 -k MAC 
- -t 7.901590000 -s 1 -d 0 -p raw -e 1526 -c 2 -a 0 -i 0 -k MAC
h -t 7.901590000 -s 1 -d 0 -p raw -e 1526 -c 2 -a 0 -i 0 -k MAC
r -t 7.913798100 -s 0 -d 0 -p raw -e 1468 -c 2 -a 0 -i 0 -k MAC
+ -t 8.001090000 -s 1 -d 0 -p raw -e 1526 -c 2 -a 0 -i 0 -k MAC 
- -t 8.001090000 -s 1 -d 0 -p raw -e 1526 -c 2 -a 0 -i 0 -k MAC
h -t 8.001090000 -s 1 -d 0 -p raw -e 1526 -c 2 -a 0 -i 0 -k MAC
r -t 8.013298100 -s 0 -d 0 -p raw -e 1468 -c 2 -a 0 -i 0 -k MAC
+ -t 8.101410000 -s 1 -d 0 -p raw -e 1526 -c 2 -a 0 -i 0 -k MAC 
- -t 8.101410000 -s 1 -d 0 -p raw -e 1526 -c 2 -a 0 -i 0 -k MAC
h -t 8.101410000 -s 1 -d 0 -p raw -e 1526 -c 2 -a 0 -i 0 -k MAC
r -t 8.113618100 -s 0 -d 0 -p raw -e 1468 -c 2 -a 0 -i 0 -k MAC
+ -t 8.201130000 -s 1 -d 0 -p raw -e 1526 -c 2 -a 0 -i 0 -k MAC 
- -t 8.201130000 -s 1 -d 0 -p raw -e 1526 -c 2 -a 0 -i 0 -k MAC
h -t 8.201130000 -s 1 -d 0 -p raw -e 1526 -c 2 -a 0 -i 0 -k MAC
r -t 8.213338100 -s 0 -d 0 -p raw -e 1468 -c 2 -a 0 -i 0 -k MAC
+ -t 8.301350000 -s 1 -d 0 -p raw -e 1526 -c 2 -a 0 -i 0 -k MAC 
- -t 8.301350000 -s 1 -d 0 -p raw -e 1526 -c 2 -a 0 -i 0 -k MAC
h -t 8.301350000 -s 1 -d 0 -p raw -e 1526 -c 2 -a 0 -i 0 -k MAC
r -t 8.313558100 -s 0 -d 0 -p raw -e 1468 -c 2 -a 0 -i 0 -k MAC
+ -t 8.401370000 -s 1 -d 0 -p raw -e 1526 -c 2 -a 0 -i 0 -k MAC 
- -t 8.401370000 -s 1 -d 0 -p raw -e 1526 -c 2 -a 0 -i 0 -k MAC
h -t 8.401370000 -s 1 -d 0 -p raw -e 1526 -c 2 -a 0 -i 0 -k MAC
r -t 8.413578100 -s 0 -d 0 -p raw -e 1468 -c 2 -a 0 -i 0 -k MAC
+ -t 8.501090000 -s 1 -d 0 -p raw -e 1526 -c 2 -a 0 -i 0 -k MAC 
- -t 8.501090000 -s 1 -d 0 -p raw -e 1526 -c 2 -a 0 -i 0 -k MAC
h -t 8.501090000 -s 1 -d 0 -p raw -e 1526 -c 2 -a 0 -i 0 -k MAC
r -t 8.513298100 -s 0 -d 0 -p raw -e 1468 -c 2 -a 0 -i 0 -k MAC
+ -t 8.601550000 -s 1 -d 0 -p raw -e 1526 -c 2 -a 0 -i 0 -k MAC 
- -t 8.601550000 -s 1 -d 0 -p raw -e 1526 -c 2 -a 0 -i 0 -k MAC
h -t 8.601550000 -s 1 -d 0 -p raw -e 1526 -c 2 -a 0 -i 0 -k MAC
r -t 8.613758100 -s 0 -d 0 -p raw -e 1468 -c 2 -a 0 -i 0 -k MAC
+ -t 8.701650000 -s 1 -d 0 -p raw -e 1526 -c 2 -a 0 -i 0 -k MAC 
- -t 8.701650000 -s 1 -d 0 -p raw -e 1526 -c 2 -a 0 -i 0 -k MAC
h -t 8.701650000 -s 1 -d 0 -p raw -e 1526 -c 2 -a 0 -i 0 -k MAC
r -t 8.713858100 -s 0 -d 0 -p raw -e 1468 -c 2 -a 0 -i 0 -k MAC
+ -t 8.801610000 -s 1 -d 0 -p raw -e 1526 -c 2 -a 0 -i 0 -k MAC 
- -t 8.801610000 -s 1 -d 0 -p raw -e 1526 -c 2 -a 0 -i 0 -k MAC
h -t 8.801610000 -s 1 -d 0 -p raw -e 1526 -c 2 -a 0 -i 0 -k MAC
r -t 8.813818100 -s 0 -d 0 -p raw -e 1468 -c 2 -a 0 -i 0 -k MAC
+ -t 8.901430000 -s 1 -d 0 -p raw -e 1526 -c 2 -a 0 -i 0 -k MAC 
- -t 8.901430000 -s 1 -d 0 -p raw -e 1526 -c 2 -a 0 -i 0 -k MAC
h -t 8.901430000 -s 1 -d 0 -p raw -e 1526 -c 2 -a 0 -i 0 -k MAC
r -t 8.913638100 -s 0 -d 0 -p raw -e 1468 -c 2 -a 0 -i 0 -k MAC
+ -t 9.001350000 -s 1 -d 0 -p raw -e 1526 -c 2 -a 0 -i 0 -k MAC 
- -t 9.001350000 -s 1 -d 0 -p raw -e 1526 -c 2 -a 0 -i 0 -k MAC
h -t 9.001350000 -s 1 -d 0 -p raw -e 1526 -c 2 -a 0 -i 0 -k MAC
r -t 9.013558100 -s 0 -d 0 -p raw -e 1468 -c 2 -a 0 -i 0 -k MAC
+ -t 9.101170000 -s 1 -d 0 -p raw -e 1526 -c 2 -a 0 -i 0 -k MAC 
- -t 9.101170000 -s 1 -d 0 -p raw -e 1526 -c 2 -a 0 -i 0 -k MAC
h -t 9.101170000 -s 1 -d 0 -p raw -e 1526 -c 2 -a 0 -i 0 -k MAC
r -t 9.113378100 -s 0 -d 0 -p raw -e 1468 -c 2 -a 0 -i 0 -k MAC
+ -t 9.201070000 -s 1 -d 0 -p raw -e 1526 -c 2 -a 0 -i 0 -k MAC 
- -t 9.201070000 -s 1 -d 0 -p raw -e 1526 -c 2 -a 0 -i 0 -k MAC
h -t 9.201070000 -s 1 -d 0 -p raw -e 1526 -c 2 -a 0 -i 0 -k MAC
r -t 9.213278100 -s 0 -d 0 -p raw -e 1468 -c 2 -a 0 -i 0 -k MAC
+ -t 9.301130000 -s 1 -d 0 -p raw -e 1526 -c 2 -a 0 -i 0 -k MAC 
- -t 9.301130000 -s 1 -d 0 -p raw -e 1526 -c 2 -a 0 -i 0 -k MAC
h -t 9.301130000 -s 1 -d 0 -p raw -e 1526 -c 2 -a 0 -i 0 -k MAC
r -t 9.313338100 -s 0 -d 0 -p raw -e 1468 -c 2 -a 0 -i 0 -k MAC
+ -t 9.401510000 -s 1 -d 0 -p raw -e 1526 -c 2 -a 0 -i 0 -k MAC 
- -t 9.401510000 -s 1 -d 0 -p raw -e 1526 -c 2 -a 0 -i 0 -k MAC
h -t 9.401510000 -s 1 -d 0 -p raw -e 1526 -c 2 -a 0 -i 0 -k MAC
r -t 9.413718100 -s 0 -d 0 -p raw -e 1468 -c 2 -a 0 -i 0 -k MAC
+ -t 9.501210000 -s 1 -d 0 -p raw -e 1526 -c 2 -a 0 -i 0 -k MAC 
- -t 9.501210000 -s 1 -d 0 -p raw -e 1526 -c 2 -a 0 -i 0 -k MAC
h -t 9.501210000 -s 1 -d 0 -p raw -e 1526 -c 2 -a 0 -i 0 -k MAC
r -t 9.513418100 -s 0 -d 0 -p raw -e 1468 -c 2 -a 0 -i 0 -k MAC
+ -t 9.601150000 -s 1 -d 0 -p raw -e 1526 -c 2 -a 0 -i 0 -k MAC 
- -t 9.601150000 -s 1 -d 0 -p raw -e 1526 -c 2 -a 0 -i 0 -k MAC
h -t 9.601150000 -s 1 -d 0 -p raw -e 1526 -c 2 -a 0 -i 0 -k MAC
r -t 9.613358100 -s 0 -d 0 -p raw -e 1468 -c 2 -a 0 -i 0 -k MAC
+ -t 9.701570000 -s 1 -d 0 -p raw -e 1526 -c 2 -a 0 -i 0 -k MAC 
- -t 9.701570000 -s 1 -d 0 -p raw -e 1526 -c 2 -a 0 -i 0 -k MAC
h -t 9.701570000 -s 1 -d 0 -p raw -e 1526 -c 2 -a 0 -i 0 -k MAC
r -t 9.713778100 -s 0 -d 0 -p raw -e 1468 -c 2 -a 0 -i 0 -k MAC
+ -t 9.801150000 -s 1 -d 0 -p raw -e 1526 -c 2 -a 0 -i 0 -k MAC 
- -t 9.801150000 -s 1 -d 0 -p raw -e 1526 -c 2 -a 0 -i 0 -k MAC
h -t 9.801150000 -s 1 -d 0 -p raw -e 1526 -c 2 -a 0 -i 0 -k MAC
r -t 9.813358100 -s 0 -d 0 -p raw -e 1468 -c 2 -a 0 -i 0 -k MAC
+ -t 9.901110000 -s 1 -d 0 -p raw -e 1526 -c 2 -a 0 -i 0 -k MAC 
- -t 9.901110000 -s 1 -d 0 -p raw -e 1526 -c 2 -a 0 -i 0 -k MAC
h -t 9.901110000 -s 1 -d 0 -p raw -e 1526 -c 2 -a 0 -i 0 -k MAC
r -t 9.913318100 -s 0 -d 0 -p raw -e 1468 -c 2 -a 0 -i 0 -k MAC
+ -t 10.001370000 -s 1 -d 0 -p raw -e 1526 -c 2 -a 0 -i 0 -k MAC 
- -t 10.001370000 -s 1 -d 0 -p raw -e 1526 -c 2 -a 0 -i 0 -k MAC
h -t 10.001370000 -s 1 -d 0 -p raw -e 1526 -c 2 -a 0 -i 0 -k MAC
r -t 10.013578100 -s 0 -d 0 -p raw -e 1468 -c 2 -a 0 -i 0 -k MAC
+ -t 10.101090000 -s 1 -d 0 -p raw -e 1526 -c 2 -a 0 -i 0 -k MAC 
- -t 10.101090000 -s 1 -d 0 -p raw -e 1526 -c 2 -a 0 -i 0 -k MAC
h -t 10.101090000 -s 1 -d 0 -p raw -e 1526 -c 2 -a 0 -i 0 -k MAC
r -t 10.113298100 -s 0 -d 0 -p raw -e 1468 -c 2 -a 0 -i 0 -k MAC
+ -t 10.201410000 -s 1 -d 0 -p raw -e 1526 -c 2 -a 0 -i 0 -k MAC 
- -t 10.201410000 -s 1 -d 0 -p raw -e 1526 -c 2 -a 0 -i 0 -k MAC
h -t 10.201410000 -s 1 -d 0 -p raw -e 1526 -c 2 -a 0 -i 0 -k MAC
+ -t 10.301210000 -s 1 -d 0 -p raw -e 1526 -c 2 -a 0 -i 0 -k MAC 
- -t 10.301210000 -s 1 -d 0 -p raw -e 1526 -c 2 -a 0 -i 0 -k MAC
h -t 10.301210000 -s 1 -d 0 -p raw -e 1526 -c 2 -a 0 -i 0 -k MAC
r -t 10.313418100 -s 0 -d 0 -p raw -e 1468 -c 2 -a 0 -i 0 -k MAC
+ -t 10.401390000 -s 1 -d 0 -p raw -e 1526 -c 2 -a 0 -i 0 -k MAC 
- -t 10.401390000 -s 1 -d 0 -p raw -e 1526 -c 2 -a 0 -i 0 -k MAC
h -t 10.401390000 -s 1 -d 0 -p raw -e 1526 -c 2 -a 0 -i 0 -k MAC
r -t 10.413598100 -s 0 -d 0 -p raw -e 1468 -c 2 -a 0 -i 0 -k MAC
+ -t 10.501410000 -s 1 -d 0 -p raw -e 1526 -c 2 -a 0 -i 0 -k MAC 
- -t 10.501410000 -s 1 -d 0 -p raw -e 1526 -c 2 -a 0 -i 0 -k MAC
h -t 10.501410000 -s 1 -d 0 -p raw -e 1526 -c 2 -a 0 -i 0 -k MAC
r -t 10.513618100 -s 0 -d 0 -p raw -e 1468 -c 2 -a 0 -i 0 -k MAC
+ -t 10.601510000 -s 1 -d 0 -p raw -e 1526 -c 2 -a 0 -i 0 -k MAC 
- -t 10.601510000 -s 1 -d 0 -p raw -e 1526 -c 2 -a 0 -i 0 -k MAC
h -t 10.601510000 -s 1 -d 0 -p raw -e 1526 -c 2 -a 0 -i 0 -k MAC
r -t 10.613718100 -s 0 -d 0 -p raw -e 1468 -c 2 -a 0 -i 0 -k MAC
+ -t 10.701050000 -s 1 -d 0 -p raw -e 1526 -c 2 -a 0 -i 0 -k MAC 
- -t 10.701050000 -s 1 -d 0 -p raw -e 1526 -c 2 -a 0 -i 0 -k MAC
h -t 10.701050000 -s 1 -d 0 -p raw -e 1526 -c 2 -a 0 -i 0 -k MAC
r -t 10.713258100 -s 0 -d 0 -p raw -e 1468 -c 2 -a 0 -i 0 -k MAC
+ -t 10.801290000 -s 1 -d 0 -p raw -e 1526 -c 2 -a 0 -i 0 -k MAC 
- -t 10.801290000 -s 1 -d 0 -p raw -e 1526 -c 2 -a 0 -i 0 -k MAC
h -t 10.801290000 -s 1 -d 0 -p raw -e 1526 -c 2 -a 0 -i 0 -k MAC
r -t 10.813498100 -s 0 -d 0 -p raw -e 1468 -c 2 -a 0 -i 0 -k MAC
+ -t 10.901450000 -s 1 -d 0 -p raw -e 1526 -c 2 -a 0 -i 0 -k MAC 
- -t 10.901450000 -s 1 -d 0 -p raw -e 1526 -c 2 -a 0 -i 0 -k MAC
h -t 10.901450000 -s 1 -d 0 -p raw -e 1526 -c 2 -a 0 -i 0 -k MAC
r -t 10.913658100 -s 0 -d 0 -p raw -e 1468 -c 2 -a 0 -i 0 -k MAC
+ -t 11.001070000 -s 1 -d 0 -p raw -e 1526 -c 2 -a 0 -i 0 -k MAC 
- -t 11.001070000 -s 1 -d 0 -p raw -e 1526 -c 2 -a 0 -i 0 -k MAC
h -t 11.001070000 -s 1 -d 0 -p raw -e 1526 -c 2 -a 0 -i 0 -k MAC
r -t 11.013278100 -s 0 -d 0 -p raw -e 1468 -c 2 -a 0 -i 0 -k MAC
+ -t 11.101430000 -s 1 -d 0 -p raw -e 1526 -c 2 -a 0 -i 0 -k MAC 
- -t 11.101430000 -s 1 -d 0 -p raw -e 1526 -c 2 -a 0 -i 0 -k MAC
h -t 11.101430000 -s 1 -d 0 -p raw -e 1526 -c 2 -a 0 -i 0 -k MAC
r -t 11.113638100 -s 0 -d 0 -p raw -e 1468 -c 2 -a 0 -i 0 -k MAC
+ -t 11.201650000 -s 1 -d 0 -p raw -e 1526 -c 2 -a 0 -i 0 -k MAC 
- -t 11.201650000 -s 1 -d 0 -p raw -e 1526 -c 2 -a 0 -i 0 -k MAC
h -t 11.201650000 -s 1 -d 0 -p raw -e 1526 -c 2 -a 0 -i 0 -k MAC
r -t 11.213858100 -s 0 -d 0 -p raw -e 1468 -c 2 -a 0 -i 0 -k MAC
+ -t 11.301210000 -s 1 -d 0 -p raw -e 1526 -c 2 -a 0 -i 0 -k MAC 
- -t 11.301210000 -s 1 -d 0 -p raw -e 1526 -c 2 -a 0 -i 0 -k MAC
h -t 11.301210000 -s 1 -d 0 -p raw -e 1526 -c 2 -a 0 -i 0 -k MAC
r -t 11.313418100 -s 0 -d 0 -p raw -e 1468 -c 2 -a 0 -i 0 -k MAC
+ -t 11.401570000 -s 1 -d 0 -p raw -e 1526 -c 2 -a 0 -i 0 -k MAC 
- -t 11.401570000 -s 1 -d 0 -p raw -e 1526 -c 2 -a 0 -i 0 -k MAC
h -t 11.401570000 -s 1 -d 0 -p raw -e 1526 -c 2 -a 0 -i 0 -k MAC
r -t 11.413778100 -s 0 -d 0 -p raw -e 1468 -c 2 -a 0 -i 0 -k MAC
+ -t 11.501470000 -s 1 -d 0 -p raw -e 1526 -c 2 -a 0 -i 0 -k MAC 
- -t 11.501470000 -s 1 -d 0 -p raw -e 1526 -c 2 -a 0 -i 0 -k MAC
h -t 11.501470000 -s 1 -d 0 -p raw -e 1526 -c 2 -a 0 -i 0 -k MAC
r -t 11.513678100 -s 0 -d 0 -p raw -e 1468 -c 2 -a 0 -i 0 -k MAC
+ -t 11.601270000 -s 1 -d 0 -p raw -e 1526 -c 2 -a 0 -i 0 -k MAC 
- -t 11.601270000 -s 1 -d 0 -p raw -e 1526 -c 2 -a 0 -i 0 -k MAC
h -t 11.601270000 -s 1 -d 0 -p raw -e 1526 -c 2 -a 0 -i 0 -k MAC